 Entering Gaussian System, Link 0=/usr/local/g09/g09
 Input=/home/anuja/input/pyrrole-center1.in
 Output=/home/anuja/output/pyrrole-center1.log
 Initial command:
 /usr/local/g09-D.01/g09/l1.exe /gtmp/Gau-9623.inp -scrdir=/gtmp/
 Entering Link 1 = /usr/local/g09-D.01/g09/l1.exe PID=      9625.
  
 Copyright (c) 1988,1990,1992,1993,1995,1998,2003,2009,2013,
            Gaussian, Inc.  All Rights Reserved.
  
 This is part of the Gaussian(R) 09 program.  It is based on
 the Gaussian(R) 03 system (copyright 2003, Gaussian, Inc.),
 the Gaussian(R) 98 system (copyright 1998, Gaussian, Inc.),
 the Gaussian(R) 94 system (copyright 1995, Gaussian, Inc.),
 the Gaussian 92(TM) system (copyright 1992, Gaussian, Inc.),
 the Gaussian 90(TM) system (copyright 1990, Gaussian, Inc.),
 the Gaussian 88(TM) system (copyright 1988, Gaussian, Inc.),
 the Gaussian 86(TM) system (copyright 1986, Carnegie Mellon
 University), and the Gaussian 82(TM) system (copyright 1983,
 Carnegie Mellon University). Gaussian is a federally registered
 trademark of Gaussian, Inc.
  
 This software contains proprietary and confidential information,
 including trade secrets, belonging to Gaussian, Inc.
  
 This software is provided under written license and may be
 used, copied, transmitted, or stored only in accord with that
 written license.
  
 The following legend is applicable only to US Government
 contracts under FAR:
  
                    RESTRICTED RIGHTS LEGEND
  
 Use, reproduction and disclosure by the US Government is
 subject to restrictions as set forth in subparagraphs (a)
 and (c) of the Commercial Computer Software - Restricted
 Rights clause in FAR 52.227-19.
  
 Gaussian, Inc.
 340 Quinnipiac St., Bldg. 40, Wallingford CT 06492
  
  
 ---------------------------------------------------------------
 Warning -- This program may not be used in any manner that
 competes with the business of Gaussian, Inc. or will provide
 assistance to any competitor of Gaussian, Inc.  The licensee
 of this program is prohibited from giving any competitor of
 Gaussian, Inc. access to this program.  By using this program,
 the user acknowledges that Gaussian, Inc. is engaged in the
 business of creating and licensing software in the field of
 computational chemistry and represents and warrants to the
 licensee that it is not a competitor of Gaussian, Inc. and that
 it will not use this program in any manner prohibited above.
 ---------------------------------------------------------------
  

 Cite this work as:
 Gaussian 09, Revision D.01,
 M. J. Frisch, G. W. Trucks, H. B. Schlegel, G. E. Scuseria, 
 M. A. Robb, J. R. Cheeseman, G. Scalmani, V. Barone, B. Mennucci, 
 G. A. Petersson, H. Nakatsuji, M. Caricato, X. Li, H. P. Hratchian, 
 A. F. Izmaylov, J. Bloino, G. Zheng, J. L. Sonnenberg, M. Hada, 
 M. Ehara, K. Toyota, R. Fukuda, J. Hasegawa, M. Ishida, T. Nakajima, 
 Y. Honda, O. Kitao, H. Nakai, T. Vreven, J. A. Montgomery, Jr., 
 J. E. Peralta, F. Ogliaro, M. Bearpark, J. J. Heyd, E. Brothers, 
 K. N. Kudin, V. N. Staroverov, T. Keith, R. Kobayashi, J. Normand, 
 K. Raghavachari, A. Rendell, J. C. Burant, S. S. Iyengar, J. Tomasi, 
 M. Cossi, N. Rega, J. M. Millam, M. Klene, J. E. Knox, J. B. Cross, 
 V. Bakken, C. Adamo, J. Jaramillo, R. Gomperts, R. E. Stratmann, 
 O. Yazyev, A. J. Austin, R. Cammi, C. Pomelli, J. W. Ochterski, 
 R. L. Martin, K. Morokuma, V. G. Zakrzewski, G. A. Voth, 
 P. Salvador, J. J. Dannenberg, S. Dapprich, A. D. Daniels, 
 O. Farkas, J. B. Foresman, J. V. Ortiz, J. Cioslowski, 
 and D. J. Fox, Gaussian, Inc., Wallingford CT, 2013.
 
 ******************************************
 Gaussian 09:  EM64L-G09RevD.01 24-Apr-2013
                 5-May-2014 
 ******************************************
 %NPROC=6
 Will use up to    6 processors via shared memory.
 %MEM=6024MB
 ----------------------------------------------------
 # B3LYP/6-311+G* NMR=GIAO POP=FULL SCF(MAXCYCLE=512)
 ----------------------------------------------------
 1/38=1/1;
 2/12=2,17=6,18=5,40=1/2;
 3/5=4,6=6,7=11,11=2,16=1,25=1,30=1,74=-5/1,2,8,3;
 4//1;
 5/5=2,7=512,38=5/2;
 8/6=1,10=90,11=11/1;
 10/13=100,45=16/2;
 6/7=3,28=1/1;
 99/9=1/99;
 ------------------
 Pyrrole # Center 1
 ------------------
 Symbolic Z-matrix:
 Charge =  0 Multiplicity = 1
 6                     0.2535   -1.15506  -0.00002 
 6                     1.17634  -0.13392   0.00002 
 6                     0.45421   1.09334  -0.0001 
 6                    -0.88659   0.78256   0.00008 
 7                    -0.99748  -0.5869    0.00001 
 1                    -1.86418  -1.09687  -0.0001 
 1                     0.38049  -2.22657  -0.00001 
 1                     2.24993  -0.25349   0.00004 
 1                     0.87109   2.0899   -0.00017 
 1                    -1.76159   1.41396   0.00015 
 bq                    0.        0.       -2. 
 bq                    0.        0.       -1.8 
 bq                    0.        0.       -1.6 
 bq                    0.        0.       -1.4 
 bq                    0.        0.       -1.2 
 bq                    0.        0.       -1. 
 bq                    0.        0.       -0.8 
 bq                    0.        0.       -0.6 
 bq                    0.        0.       -0.4 
 bq                    0.        0.       -0.2 
 bq                    0.        0.        0. 
 bq                    0.        0.        0.2 
 bq                    0.        0.        0.4 
 bq                    0.        0.        0.6 
 bq                    0.        0.        0.8 
 bq                    0.        0.        1. 
 bq                    0.        0.        1.2 
 bq                    0.        0.        1.4 
 bq                    0.        0.        1.6 
 bq                    0.        0.        1.8 
 
                          Input orientation:                          
 ---------------------------------------------------------------------
 Center     Atomic      Atomic             Coordinates (Angstroms)
 Number     Number       Type             X           Y           Z
 ---------------------------------------------------------------------
      1          6           0        0.253500   -1.155060   -0.000020
      2          6           0        1.176340   -0.133920    0.000020
      3          6           0        0.454210    1.093340   -0.000100
      4          6           0       -0.886590    0.782560    0.000080
      5          7           0       -0.997480   -0.586900    0.000010
      6          1           0       -1.864180   -1.096870   -0.000100
      7          1           0        0.380490   -2.226570   -0.000010
      8          1           0        2.249930   -0.253490    0.000040
      9          1           0        0.871090    2.089900   -0.000170
     10          1           0       -1.761590    1.413960    0.000150
     11          0           0        0.000000    0.000000   -2.000000
     12          0           0        0.000000    0.000000   -1.800000
     13          0           0        0.000000    0.000000   -1.600000
     14          0           0        0.000000    0.000000   -1.400000
     15          0           0        0.000000    0.000000   -1.200000
     16          0           0        0.000000    0.000000   -1.000000
     17          0           0        0.000000    0.000000   -0.800000
     18          0           0        0.000000    0.000000   -0.600000
     19          0           0        0.000000    0.000000   -0.400000
     20          0           0        0.000000    0.000000   -0.200000
     21          0           0        0.000000    0.000000    0.000000
     22          0           0        0.000000    0.000000    0.200000
     23          0           0        0.000000    0.000000    0.400000
     24          0           0        0.000000    0.000000    0.600000
     25          0           0        0.000000    0.000000    0.800000
     26          0           0        0.000000    0.000000    1.000000
     27          0           0        0.000000    0.000000    1.200000
     28          0           0        0.000000    0.000000    1.400000
     29          0           0        0.000000    0.000000    1.600000
     30          0           0        0.000000    0.000000    1.800000
 ---------------------------------------------------------------------
                    Distance matrix (angstroms):
                    1          2          3          4          5
     1  C    0.000000
     2  C    1.376358   0.000000
     3  C    2.257341   1.423952   0.000000
     4  C    2.248150   2.257347   1.376346   0.000000
     5  N    1.373957   2.220514   2.220498   1.373942   0.000000
     6  H    2.118479   3.189363   3.189350   2.118476   1.005603
     7  H    1.079009   2.238875   3.320728   3.265020   2.141803
     8  H    2.190562   1.080228   2.244674   3.303204   3.264481
     9  H    3.303208   2.244672   1.080241   2.190565   3.264477
    10  H    3.265035   3.320748   2.238876   1.079023   2.141799
    11  Bq   2.323434   2.324175   2.324070   2.323524   2.310727
    12  Bq   2.153684   2.154480   2.154377   2.153771   2.139966
    13  Bq   1.989563   1.990421   1.990321   1.989648   1.974702
    14  Bq   1.832586   1.833512   1.833417   1.832666   1.816438
    15  Bq   1.684749   1.685752   1.685663   1.684825   1.667166
    16  Bq   1.548672   1.549758   1.549677   1.548742   1.529522
    17  Bq   1.427723   1.428896   1.428824   1.427785   1.406924
    18  Bq   1.326047   1.327303   1.327245   1.326099   1.303622
    19  Bq   1.248363   1.249691   1.249648   1.248401   1.224510
    20  Bq   1.199341   1.200716   1.200691   1.199364   1.174488
    21  Bq   1.182551   1.183938   1.183934   1.182557   1.157332
    22  Bq   1.199347   1.200709   1.200724   1.199337   1.174485
    23  Bq   1.248376   1.249678   1.249712   1.248350   1.224504
    24  Bq   1.326066   1.327285   1.327335   1.326026   1.303613
    25  Bq   1.427746   1.428873   1.428936   1.427695   1.406912
    26  Bq   1.548698   1.549732   1.549806   1.548639   1.529509
    27  Bq   1.684777   1.685723   1.685805   1.684711   1.667151
    28  Bq   1.832616   1.833481   1.833570   1.832544   1.816422
    29  Bq   1.989595   1.990388   1.990482   1.989519   1.974686
    30  Bq   2.153717   2.154446   2.154544   2.153637   2.139949
                    6          7          8          9         10
     6  H    0.000000
     7  H    2.512920   0.000000
     8  H    4.199666   2.718060   0.000000
     9  H    4.199667   4.344261   2.718948   0.000000
    10  H    2.512925   4.223975   4.344270   2.718069   0.000000
    11  Bq   2.945826   3.017010   3.021027   3.020894   3.017131
    12  Bq   2.813882   2.888313   2.892505   2.892381   2.888429
    13  Bq   2.690348   2.768096   2.772466   2.772352   2.768206
    14  Bq   2.576434   2.657510   2.662058   2.661955   2.657612
    15  Bq   2.473469   2.557804   2.562526   2.562435   2.557898
    16  Bq   2.382874   2.470297   2.475181   2.475104   2.470381
    17  Bq   2.306107   2.396324   2.401355   2.401293   2.396398
    18  Bq   2.244587   2.337172   2.342326   2.342280   2.337234
    19  Bq   2.199593   2.293987   2.299233   2.299205   2.294036
    20  Bq   2.172154   2.267682   2.272984   2.272974   2.267717
    21  Bq   2.162936   2.258846   2.264165   2.264173   2.258867
    22  Bq   2.172172   2.267684   2.272977   2.273004   2.267691
    23  Bq   2.199630   2.293991   2.299219   2.299264   2.293984
    24  Bq   2.244640   2.337177   2.342305   2.342367   2.337157
    25  Bq   2.306177   2.396331   2.401328   2.401406   2.396298
    26  Bq   2.382958   2.470305   2.475149   2.475241   2.470260
    27  Bq   2.473566   2.557814   2.562488   2.562594   2.557757
    28  Bq   2.576542   2.657520   2.662016   2.662134   2.657454
    29  Bq   2.690467   2.768107   2.772420   2.772548   2.768032
    30  Bq   2.814010   2.888325   2.892455   2.892593   2.888242
                   11         12         13         14         15
    11  Bq   0.000000
    12  Bq   0.200000   0.000000
    13  Bq   0.400000   0.200000   0.000000
    14  Bq   0.600000   0.400000   0.200000   0.000000
    15  Bq   0.800000   0.600000   0.400000   0.200000   0.000000
    16  Bq   1.000000   0.800000   0.600000   0.400000   0.200000
    17  Bq   1.200000   1.000000   0.800000   0.600000   0.400000
    18  Bq   1.400000   1.200000   1.000000   0.800000   0.600000
    19  Bq   1.600000   1.400000   1.200000   1.000000   0.800000
    20  Bq   1.800000   1.600000   1.400000   1.200000   1.000000
    21  Bq   2.000000   1.800000   1.600000   1.400000   1.200000
    22  Bq   2.200000   2.000000   1.800000   1.600000   1.400000
    23  Bq   2.400000   2.200000   2.000000   1.800000   1.600000
    24  Bq   2.600000   2.400000   2.200000   2.000000   1.800000
    25  Bq   2.800000   2.600000   2.400000   2.200000   2.000000
    26  Bq   3.000000   2.800000   2.600000   2.400000   2.200000
    27  Bq   3.200000   3.000000   2.800000   2.600000   2.400000
    28  Bq   3.400000   3.200000   3.000000   2.800000   2.600000
    29  Bq   3.600000   3.400000   3.200000   3.000000   2.800000
    30  Bq   3.800000   3.600000   3.400000   3.200000   3.000000
                   16         17         18         19         20
    16  Bq   0.000000
    17  Bq   0.200000   0.000000
    18  Bq   0.400000   0.200000   0.000000
    19  Bq   0.600000   0.400000   0.200000   0.000000
    20  Bq   0.800000   0.600000   0.400000   0.200000   0.000000
    21  Bq   1.000000   0.800000   0.600000   0.400000   0.200000
    22  Bq   1.200000   1.000000   0.800000   0.600000   0.400000
    23  Bq   1.400000   1.200000   1.000000   0.800000   0.600000
    24  Bq   1.600000   1.400000   1.200000   1.000000   0.800000
    25  Bq   1.800000   1.600000   1.400000   1.200000   1.000000
    26  Bq   2.000000   1.800000   1.600000   1.400000   1.200000
    27  Bq   2.200000   2.000000   1.800000   1.600000   1.400000
    28  Bq   2.400000   2.200000   2.000000   1.800000   1.600000
    29  Bq   2.600000   2.400000   2.200000   2.000000   1.800000
    30  Bq   2.800000   2.600000   2.400000   2.200000   2.000000
                   21         22         23         24         25
    21  Bq   0.000000
    22  Bq   0.200000   0.000000
    23  Bq   0.400000   0.200000   0.000000
    24  Bq   0.600000   0.400000   0.200000   0.000000
    25  Bq   0.800000   0.600000   0.400000   0.200000   0.000000
    26  Bq   1.000000   0.800000   0.600000   0.400000   0.200000
    27  Bq   1.200000   1.000000   0.800000   0.600000   0.400000
    28  Bq   1.400000   1.200000   1.000000   0.800000   0.600000
    29  Bq   1.600000   1.400000   1.200000   1.000000   0.800000
    30  Bq   1.800000   1.600000   1.400000   1.200000   1.000000
                   26         27         28         29         30
    26  Bq   0.000000
    27  Bq   0.200000   0.000000
    28  Bq   0.400000   0.200000   0.000000
    29  Bq   0.600000   0.400000   0.200000   0.000000
    30  Bq   0.800000   0.600000   0.400000   0.200000   0.000000
 Symmetry turned off:
 Cannot cope with ghost atoms or with translation vectors.
 Stoichiometry    C4H5N
 Framework group  C1[X(C4H5N)]
 NUMDOF-- NAT=    10 NAtoms=    30
 Deg. of freedom     0
 Full point group                 C1      NOp   1
 Rotational constants (GHZ):      9.1542652      9.0254960      4.5447123
 Standard basis: 6-311+G(d) (5D, 7F)
 Warning:  center  11 has no basis functions!
 Warning:  center  12 has no basis functions!
 Warning:  center  13 has no basis functions!
 Warning:  center  14 has no basis functions!
 Warning:  center  15 has no basis functions!
 Warning:  center  16 has no basis functions!
 Warning:  center  17 has no basis functions!
 Warning:  center  18 has no basis functions!
 Warning:  center  19 has no basis functions!
 Warning:  center  20 has no basis functions!
 Warning:  center  21 has no basis functions!
 Warning:  center  22 has no basis functions!
 Warning:  center  23 has no basis functions!
 Warning:  center  24 has no basis functions!
 Warning:  center  25 has no basis functions!
 Warning:  center  26 has no basis functions!
 Warning:  center  27 has no basis functions!
 Warning:  center  28 has no basis functions!
 Warning:  center  29 has no basis functions!
 Warning:  center  30 has no basis functions!
   125 basis functions,   205 primitive gaussians,   130 cartesian basis functions
    18 alpha electrons       18 beta electrons
       nuclear repulsion energy       160.9182389208 Hartrees.
 NAtoms=   30 NActive=   30 NUniq=   30 SFac= 1.00D+00 NAtFMM=   60 NAOKFM=F Big=F
 Integral buffers will be    131072 words long.
 Raffenetti 2 integral format.
 Two-electron integral symmetry is turned off.
 One-electron integrals computed using PRISM.
 NBasis=   125 RedAO= T EigKep=  2.06D-05  NBF=   125
 NBsUse=   125 1.00D-06 EigRej= -1.00D+00 NBFU=   125
 ExpMin= 4.38D-02 ExpMax= 6.29D+03 ExpMxC= 9.49D+02 IAcc=2 IRadAn=         4 AccDes= 0.00D+00
 Harris functional with IExCor=  402 and IRadAn=       4 diagonalized for initial guess.
 HarFok:  IExCor=  402 AccDes= 0.00D+00 IRadAn=         4 IDoV= 1 UseB2=F ITyADJ=14
 ICtDFT=  3500011 ScaDFX=  1.000000  1.000000  1.000000  1.000000
 FoFCou: FMM=F IPFlag=           0 FMFlag=      100000 FMFlg1=           0
         NFxFlg=           0 DoJE=T BraDBF=F KetDBF=T FulRan=T
         wScrn=  0.000000 ICntrl=     500 IOpCl=  0 I1Cent=   200000004 NGrid=           0
         NMat0=    1 NMatS0=      1 NMatT0=    0 NMatD0=    1 NMtDS0=    0 NMtDT0=    0
 Symmetry not used in FoFCou.
 Keep R1 ints in memory in canonical form, NReq=32454280.
 Requested convergence on RMS density matrix=1.00D-08 within 512 cycles.
 Requested convergence on MAX density matrix=1.00D-06.
 Requested convergence on             energy=1.00D-06.
 No special actions if energy rises.
 SCF Done:  E(RB3LYP) =  -210.219244540     A.U. after   11 cycles
            NFock= 11  Conv=0.71D-08     -V/T= 2.0042
 DoSCS=F DFT=T ScalE2(SS,OS)=  1.000000  1.000000
 Range of M.O.s used for correlation:     1   125
 NBasis=   125 NAE=    18 NBE=    18 NFC=     0 NFV=     0
 NROrb=    125 NOA=    18 NOB=    18 NVA=   107 NVB=   107

 **** Warning!!: The largest alpha MO coefficient is  0.74174863D+02

          Differentiating once with respect to magnetic field using GIAOs.
          Electric field/nuclear overlap derivatives assumed to be zero.
 Keep R3 ints in memory in canonical form, NReq=33055759.
 FoFJK:  IHMeth= 1 ICntrl=    6127 DoSepK=F KAlg= 0 I1Cent=   0 FoldK=F
 IRaf=         1 NMat=   1 IRICut=       1 DoRegI=T DoRafI=F ISym2E= 0.
          There are     3 degrees of freedom in the 1st order CPHF.  IDoFFX=0 NUNeed=     3.
      3 vectors produced by pass  0 Test12= 6.42D-14 3.33D-08 XBig12= 4.42D+00 7.65D-01.
 AX will form     3 AO Fock derivatives at one time.
      3 vectors produced by pass  1 Test12= 6.42D-14 3.33D-08 XBig12= 6.44D-03 2.91D-02.
      3 vectors produced by pass  2 Test12= 6.42D-14 3.33D-08 XBig12= 1.10D-05 2.34D-03.
      3 vectors produced by pass  3 Test12= 6.42D-14 3.33D-08 XBig12= 4.29D-08 9.90D-05.
      3 vectors produced by pass  4 Test12= 6.42D-14 3.33D-08 XBig12= 9.21D-11 5.22D-06.
      3 vectors produced by pass  5 Test12= 6.42D-14 3.33D-08 XBig12= 2.95D-13 3.14D-07.
 InvSVY:  IOpt=1 It=  1 EMax= 4.44D-16
 Solved reduced A of dimension    18 with     3 vectors.
 Calculating GIAO nuclear magnetic shielding tensors.
 SCF GIAO Magnetic shielding tensor (ppm):
      1  C    Isotropic =    63.5256   Anisotropy =   114.8495
   XX=    43.9551   YX=    36.9515   ZX=     0.0008
   XY=    29.5545   YY=     6.5298   ZY=    -0.0032
   XZ=     0.0091   YZ=     0.0036   ZZ=   140.0920
   Eigenvalues:   -12.9142    63.3991   140.0920
      2  C    Isotropic =    70.2127   Anisotropy =   138.0690
   XX=    -8.1339   YX=    16.4168   ZX=    -0.0084
   XY=    21.2061   YY=    56.5135   ZY=     0.0059
   XZ=    -0.0006   YZ=    -0.0067   ZZ=   162.2587
   Eigenvalues:   -13.2093    61.5888   162.2587
      3  C    Isotropic =    70.2407   Anisotropy =   138.1050
   XX=    57.1258   YX=   -15.0042   ZX=     0.0079
   XY=   -19.8798   YY=    -8.7144   ZY=     0.0169
   XZ=     0.0049   YZ=     0.0106   ZZ=   162.3107
   Eigenvalues:   -13.0495    61.4610   162.3107
      4  C    Isotropic =    63.7573   Anisotropy =   114.6413
   XX=    44.1753   YX=    29.1687   ZX=     0.0113
   XY=    37.1769   YY=     6.9119   ZY=    -0.0110
   XZ=     0.0034   YZ=    -0.0026   ZZ=   140.1849
   Eigenvalues:   -12.5034    63.5906   140.1849
      5  N    Isotropic =    93.8316   Anisotropy =   127.2235
   XX=    25.5753   YX=   -46.7846   ZX=    -0.0085
   XY=   -46.8043   YY=    77.2723   ZY=    -0.0062
   XZ=     0.0019   YZ=     0.0178   ZZ=   178.6473
   Eigenvalues:    -2.0352   104.8828   178.6473
      6  H    Isotropic =    24.9355   Anisotropy =     7.5980
   XX=    28.8154   YX=     2.0230   ZX=     0.0003
   XY=     2.0273   YY=    26.5410   ZY=     0.0001
   XZ=     0.0014   YZ=     0.0010   ZZ=    19.4501
   Eigenvalues:    19.4501    25.3556    30.0008
      7  H    Isotropic =    25.6133   Anisotropy =     2.6500
   XX=    26.8505   YX=     0.2779   ZX=    -0.0002
   XY=    -0.8191   YY=    27.2416   ZY=    -0.0001
   XZ=    -0.0001   YZ=     0.0000   ZZ=    22.7477
   Eigenvalues:    22.7477    26.7122    27.3799
      8  H    Isotropic =    25.9927   Anisotropy =     1.8412
   XX=    27.0940   YX=     0.3142   ZX=    -0.0001
   XY=    -0.0826   YY=    27.1139   ZY=     0.0000
   XZ=    -0.0001   YZ=    -0.0002   ZZ=    23.7702
   Eigenvalues:    23.7702    26.9877    27.2202
      9  H    Isotropic =    25.9720   Anisotropy =     1.8229
   XX=    27.1596   YX=    -0.0887   ZX=     0.0000
   XY=     0.2400   YY=    26.9801   ZY=    -0.0001
   XZ=     0.0002   YZ=     0.0003   ZZ=    23.7762
   Eigenvalues:    23.7762    26.9525    27.1872
     10  H    Isotropic =    25.5996   Anisotropy =     2.7255
   XX=    26.9343   YX=    -0.9509   ZX=    -0.0002
   XY=     0.2010   YY=    27.1252   ZY=     0.0001
   XZ=     0.0003   YZ=    -0.0001   ZZ=    22.7394
   Eigenvalues:    22.7394    26.6428    27.4167
     11  Bq   Isotropic =     3.9252   Anisotropy =    17.7551
   XX=    -2.0301   YX=    -0.0596   ZX=     0.3894
   XY=    -0.0501   YY=    -1.9510   ZY=     0.1738
   XZ=     0.1644   YZ=     0.0989   ZZ=    15.7565
   Eigenvalues:    -2.0635    -1.9229    15.7619
     12  Bq   Isotropic =     4.8357   Anisotropy =    20.8153
   XX=    -2.1902   YX=    -0.1635   ZX=     0.3985
   XY=    -0.1725   YY=    -2.0087   ZY=     0.1781
   XZ=     0.2637   YZ=     0.1561   ZZ=    18.7060
   Eigenvalues:    -2.2969    -1.9085    18.7126
     13  Bq   Isotropic =     5.9338   Anisotropy =    24.1641
   XX=    -2.2754   YX=    -0.3007   ZX=     0.3364
   XY=    -0.3365   YY=    -1.9594   ZY=     0.1450
   XZ=     0.3994   YZ=     0.2341   ZZ=    22.0362
   Eigenvalues:    -2.4800    -1.7619    22.0432
     14  Bq   Isotropic =     7.2083   Anisotropy =    27.5151
   XX=    -2.1959   YX=    -0.4589   ZX=     0.1618
   XY=    -0.5265   YY=    -1.7247   ZY=     0.0514
   XZ=     0.5706   YZ=     0.3326   ZZ=    25.5456
   Eigenvalues:    -2.5125    -1.4142    25.5517
     15  Bq   Isotropic =     8.6078   Anisotropy =    30.2531
   XX=    -1.7814   YX=    -0.6031   ZX=    -0.1700
   XY=    -0.6999   YY=    -1.1681   ZY=    -0.1291
   XZ=     0.7616   YZ=     0.4423   ZZ=    28.7729
   Eigenvalues:    -2.1984    -0.7547    28.7766
     16  Bq   Isotropic =    10.0307   Anisotropy =    31.2902
   XX=    -0.7285   YX=    -0.6525   ZX=    -0.6918
   XY=    -0.7647   YY=    -0.0697   ZY=    -0.4174
   XZ=     0.9269   YZ=     0.5374   ZZ=    30.8904
   Eigenvalues:    -1.1810     0.3823    30.8909
     17  Bq   Isotropic =    11.3369   Anisotropy =    29.1327
   XX=     1.4017   YX=    -0.4613   ZX=    -1.3694
   XY=    -0.5642   YY=     1.8520   ZY=    -0.7972
   XZ=     0.9868   YZ=     0.5716   ZZ=    30.7570
   Eigenvalues:     1.0651     2.1869    30.7587
     18  Bq   Isotropic =    12.3841   Anisotropy =    22.5917
   XX=     4.9589   YX=     0.1315   ZX=    -1.9981
   XY=     0.0633   YY=     4.7671   ZY=    -1.1531
   XZ=     0.8666   YZ=     0.5021   ZZ=    27.4263
   Eigenvalues:     4.7260     4.9810    27.4452
     19  Bq   Isotropic =    13.0772   Anisotropy =    12.3706
   XX=     9.6258   YX=     1.1201   ZX=    -2.1588
   XY=     1.0990   YY=     8.3562   ZY=    -1.2437
   XZ=     0.5841   YZ=     0.3388   ZZ=    21.2497
   Eigenvalues:     7.7127    10.1947    21.3243
     20  Bq   Isotropic =    13.4195   Anisotropy =     3.4298
   XX=    13.9080   YX=     2.1374   ZX=    -1.4546
   XY=     2.1547   YY=    11.5228   ZY=    -0.8380
   XZ=     0.2654   YZ=     0.1543   ZZ=    14.8276
   Eigenvalues:    10.2603    14.2921    15.7060
     21  Bq   Isotropic =    13.5109   Anisotropy =     5.5561
   XX=    15.6847   YX=     2.5799   ZX=     0.0004
   XY=     2.6117   YY=    12.8116   ZY=     0.0000
   XZ=     0.0002   YZ=     0.0002   ZZ=    12.0365
   Eigenvalues:    11.2813    12.0365    17.2150
     22  Bq   Isotropic =    13.4196   Anisotropy =     3.4299
   XX=    13.9091   YX=     2.1352   ZX=     1.4557
   XY=     2.1529   YY=    11.5221   ZY=     0.8380
   XZ=    -0.2646   YZ=    -0.1539   ZZ=    14.8276
   Eigenvalues:    10.2618    14.2909    15.7062
     23  Bq   Isotropic =    13.0774   Anisotropy =    12.3708
   XX=     9.6278   YX=     1.1164   ZX=     2.1606
   XY=     1.0959   YY=     8.3548   ZY=     1.2437
   XZ=    -0.5824   YZ=    -0.3384   ZZ=    21.2498
   Eigenvalues:     7.7151    10.1926    21.3246
     24  Bq   Isotropic =    12.3842   Anisotropy =    22.5918
   XX=     4.9612   YX=     0.1272   ZX=     2.0007
   XY=     0.0599   YY=     4.7652   ZY=     1.1532
   XZ=    -0.8643   YZ=    -0.5018   ZZ=    27.4263
   Eigenvalues:     4.7274     4.9799    27.4454
     25  Bq   Isotropic =    11.3370   Anisotropy =    29.1327
   XX=     1.4038   YX=    -0.4653   ZX=     1.3724
   XY=    -0.5674   YY=     1.8500   ZY=     0.7973
   XZ=    -0.9843   YZ=    -0.5713   ZZ=    30.7571
   Eigenvalues:     1.0628     2.1894    30.7588
     26  Bq   Isotropic =    10.0307   Anisotropy =    31.2902
   XX=    -0.7267   YX=    -0.6557   ZX=     0.6948
   XY=    -0.7672   YY=    -0.0715   ZY=     0.4176
   XZ=    -0.9248   YZ=    -0.5371   ZZ=    30.8903
   Eigenvalues:    -1.1828     0.3842    30.8908
     27  Bq   Isotropic =     8.6078   Anisotropy =    30.2530
   XX=    -1.7801   YX=    -0.6053   ZX=     0.1727
   XY=    -0.7018   YY=    -1.1695   ZY=     0.1293
   XZ=    -0.7600   YZ=    -0.4422   ZZ=    28.7728
   Eigenvalues:    -2.1997    -0.7535    28.7764
     28  Bq   Isotropic =     7.2083   Anisotropy =    27.5149
   XX=    -2.1950   YX=    -0.4603   ZX=    -0.1594
   XY=    -0.5277   YY=    -1.7257   ZY=    -0.0511
   XZ=    -0.5695   YZ=    -0.3325   ZZ=    25.5455
   Eigenvalues:    -2.5133    -1.4135    25.5516
     29  Bq   Isotropic =     5.9337   Anisotropy =    24.1640
   XX=    -2.2748   YX=    -0.3016   ZX=    -0.3344
   XY=    -0.3372   YY=    -1.9601   ZY=    -0.1447
   XZ=    -0.3986   YZ=    -0.2340   ZZ=    22.0361
   Eigenvalues:    -2.4804    -1.7615    22.0430
     30  Bq   Isotropic =     4.8356   Anisotropy =    20.8152
   XX=    -2.1898   YX=    -0.1640   ZX=    -0.3969
   XY=    -0.1730   YY=    -2.0092   ZY=    -0.1778
   XZ=    -0.2633   YZ=    -0.1560   ZZ=    18.7059
   Eigenvalues:    -2.2972    -1.9084    18.7124
 End of Minotr F.D. properties file   721 does not exist.
 End of Minotr F.D. properties file   722 does not exist.
 End of Minotr F.D. properties file   788 does not exist.

 **********************************************************************

            Population analysis using the SCF density.

 **********************************************************************

 Alpha  occ. eigenvalues --  -14.35991 -10.19085 -10.19084 -10.15442 -10.15399
 Alpha  occ. eigenvalues --   -0.97979  -0.77603  -0.72353  -0.59471  -0.56830
 Alpha  occ. eigenvalues --   -0.54820  -0.43518  -0.42792  -0.40879  -0.39374
 Alpha  occ. eigenvalues --   -0.37921  -0.24788  -0.21699
 Alpha virt. eigenvalues --   -0.00330   0.02310   0.02676   0.03026   0.04810
 Alpha virt. eigenvalues --    0.05079   0.06223   0.06460   0.07357   0.09525
 Alpha virt. eigenvalues --    0.10160   0.10434   0.11121   0.14663   0.14665
 Alpha virt. eigenvalues --    0.16016   0.16093   0.16190   0.19279   0.19327
 Alpha virt. eigenvalues --    0.20020   0.21058   0.21952   0.23298   0.23981
 Alpha virt. eigenvalues --    0.24651   0.26585   0.27253   0.28927   0.37975
 Alpha virt. eigenvalues --    0.42790   0.43290   0.43956   0.51804   0.52762
 Alpha virt. eigenvalues --    0.55298   0.57346   0.59310   0.59535   0.61301
 Alpha virt. eigenvalues --    0.62138   0.64065   0.72150   0.73335   0.74400
 Alpha virt. eigenvalues --    0.76666   0.80395   0.81248   0.82686   0.83316
 Alpha virt. eigenvalues --    0.83544   0.85787   0.89372   0.97322   1.03280
 Alpha virt. eigenvalues --    1.05658   1.07037   1.13846   1.17941   1.19605
 Alpha virt. eigenvalues --    1.30213   1.40628   1.42622   1.59661   1.64705
 Alpha virt. eigenvalues --    1.67436   1.76191   1.79447   1.83293   1.86136
 Alpha virt. eigenvalues --    1.91982   1.92781   1.99837   2.00880   2.13804
 Alpha virt. eigenvalues --    2.18719   2.26316   2.28976   2.33171   2.41056
 Alpha virt. eigenvalues --    2.43869   2.56718   2.59326   2.68175   2.69540
 Alpha virt. eigenvalues --    2.71336   2.78582   2.89138   3.01690   3.13810
 Alpha virt. eigenvalues --    3.23512   3.26301   3.34804   3.40891   3.45675
 Alpha virt. eigenvalues --    3.49663   3.61513   3.80671   3.84758   4.12781
 Alpha virt. eigenvalues --    4.49315   5.03050  23.46945  23.75859  24.05506
 Alpha virt. eigenvalues --   24.11417  35.47048
     Molecular Orbital Coefficients:
                           1         2         3         4         5
                           O         O         O         O         O
     Eigenvalues --   -14.35991 -10.19085 -10.19084 -10.15442 -10.15399
   1 1   C  1S          0.00000  -0.39233   0.40361  -0.00333  -0.00339
   2        2S          0.00008  -0.32295   0.33228  -0.00247  -0.00262
   3        2PX        -0.00044   0.00062  -0.00054   0.00056   0.00036
   4        2PY         0.00010   0.00030  -0.00040   0.00039   0.00044
   5        2PZ         0.00000   0.00000   0.00000   0.00000   0.00000
   6        3S          0.00013  -0.01302   0.01298  -0.00077  -0.00030
   7        3PX         0.00120  -0.00105   0.00047  -0.00261  -0.00144
   8        3PY         0.00000  -0.00250   0.00267  -0.00207  -0.00164
   9        3PZ         0.00000   0.00000   0.00000   0.00000   0.00000
  10        4S          0.00541   0.00922  -0.00677  -0.00102   0.00279
  11        4PX        -0.00172   0.00032   0.00074   0.00120   0.00043
  12        4PY         0.00418   0.00321   0.00043   0.00081   0.00272
  13        4PZ         0.00000   0.00000   0.00000   0.00000   0.00000
  14        5S         -0.00091  -0.00209  -0.01439  -0.02174  -0.01456
  15        5PX         0.00069  -0.00527  -0.00249  -0.00351   0.00189
  16        5PY         0.00009  -0.00091  -0.00275  -0.00491  -0.00288
  17        5PZ         0.00000   0.00000   0.00000   0.00000   0.00000
  18        6D 0        0.00019   0.00093  -0.00110   0.00071   0.00068
  19        6D+1        0.00000   0.00000   0.00000   0.00000   0.00000
  20        6D-1        0.00000   0.00000   0.00000   0.00000   0.00000
  21        6D+2       -0.00057  -0.00015  -0.00009   0.00020   0.00051
  22        6D-2        0.00086  -0.00091   0.00055  -0.00172  -0.00101
  23 2   C  1S         -0.00002  -0.00324   0.00324   0.39778   0.39821
  24        2S          0.00008  -0.00284   0.00295   0.32758   0.32767
  25        2PX         0.00003   0.00040  -0.00033   0.00018   0.00065
  26        2PY        -0.00012   0.00063  -0.00043   0.00049  -0.00046
  27        2PZ         0.00000   0.00000   0.00000   0.00000   0.00000
  28        3S         -0.00039   0.00016  -0.00056   0.01303   0.01337
  29        3PX         0.00036  -0.00161   0.00172  -0.00192  -0.00341
  30        3PY         0.00073  -0.00321   0.00189  -0.00220   0.00145
  31        3PZ         0.00000   0.00000   0.00000   0.00000   0.00000
  32        4S         -0.00222  -0.00150  -0.00208  -0.00785  -0.01331
  33        4PX         0.00210   0.00169   0.00025   0.00129   0.00556
  34        4PY         0.00004   0.00126  -0.00006   0.00059  -0.00128
  35        4PZ         0.00000   0.00000   0.00000   0.00000   0.00000
  36        5S         -0.00055  -0.01621   0.01148   0.01988   0.03522
  37        5PX         0.00030   0.00308  -0.00123  -0.00425  -0.00671
  38        5PY        -0.00015  -0.00817  -0.00249  -0.00318   0.00505
  39        5PZ         0.00000   0.00000   0.00000   0.00000   0.00000
  40        6D 0        0.00002  -0.00068   0.00074  -0.00057  -0.00153
  41        6D+1        0.00000   0.00000   0.00000   0.00000   0.00000
  42        6D-1        0.00000   0.00000   0.00000   0.00000   0.00000
  43        6D+2        0.00020   0.00037   0.00026   0.00003  -0.00056
  44        6D-2       -0.00034   0.00187  -0.00132   0.00148  -0.00071
  45 3   C  1S         -0.00002   0.00333   0.00315   0.39814  -0.39785
  46        2S          0.00008   0.00293   0.00287   0.32787  -0.32737
  47        2PX        -0.00009  -0.00075  -0.00051   0.00051   0.00009
  48        2PY         0.00008  -0.00005  -0.00008  -0.00008  -0.00079
  49        2PZ         0.00000   0.00000   0.00000   0.00000   0.00000
  50        3S         -0.00039  -0.00017  -0.00056   0.01304  -0.01336
  51        3PX         0.00081   0.00366   0.00239  -0.00285   0.00039
  52        3PY        -0.00004  -0.00013   0.00059  -0.00062   0.00368
  53        3PZ         0.00000   0.00000   0.00000   0.00000   0.00000
  54        4S         -0.00222   0.00144  -0.00212  -0.00787   0.01330
  55        4PX         0.00106  -0.00191   0.00012   0.00115  -0.00158
  56        4PY         0.00182  -0.00086   0.00027   0.00085  -0.00548
  57        4PZ         0.00000   0.00000   0.00000   0.00000   0.00000
  58        5S         -0.00055   0.01653   0.01101   0.01991  -0.03520
  59        5PX         0.00002   0.00557  -0.00293  -0.00484  -0.00116
  60        5PY         0.00034  -0.00666   0.00032  -0.00218   0.00832
  61        5PZ         0.00000   0.00000   0.00000   0.00000   0.00000
  62        6D 0        0.00002   0.00070   0.00072  -0.00057   0.00153
  63        6D+1        0.00000   0.00000   0.00000   0.00000   0.00000
  64        6D-1        0.00000   0.00000   0.00000   0.00000   0.00000
  65        6D+2       -0.00040  -0.00143  -0.00121   0.00124   0.00031
  66        6D-2       -0.00001  -0.00132  -0.00044   0.00081   0.00085
  67 4   C  1S          0.00000   0.40362   0.39232  -0.00333   0.00338
  68        2S          0.00008   0.33224   0.32299  -0.00247   0.00262
  69        2PX        -0.00012  -0.00058  -0.00060   0.00061  -0.00055
  70        2PY        -0.00044  -0.00040  -0.00026   0.00030  -0.00010
  71        2PZ         0.00000   0.00000   0.00000   0.00000   0.00000
  72        3S          0.00013   0.01338   0.01260  -0.00077   0.00030
  73        3PX         0.00058   0.00277   0.00248  -0.00308   0.00213
  74        3PY         0.00105  -0.00032  -0.00088  -0.00128   0.00046
  75        3PZ         0.00000   0.00000   0.00000   0.00000   0.00000
  76        4S          0.00541  -0.00940  -0.00651  -0.00102  -0.00279
  77        4PX         0.00281  -0.00294   0.00082   0.00129  -0.00259
  78        4PY        -0.00354   0.00129   0.00040   0.00065   0.00094
  79        4PZ         0.00000   0.00000   0.00000   0.00000   0.00000
  80        5S         -0.00091   0.00168  -0.01444  -0.02176   0.01454
  81        5PX         0.00041   0.00325  -0.00370  -0.00600   0.00160
  82        5PY         0.00056   0.00414  -0.00096  -0.00068  -0.00305
  83        5PZ         0.00000   0.00000   0.00000   0.00000   0.00000
  84        6D 0        0.00019  -0.00096  -0.00107   0.00071  -0.00068
  85        6D+1        0.00000   0.00000   0.00000   0.00000   0.00000
  86        6D-1        0.00000   0.00000   0.00000   0.00000   0.00000
  87        6D+2        0.00103   0.00070   0.00049  -0.00157   0.00112
  88        6D-2       -0.00003   0.00062   0.00020  -0.00074   0.00010
  89 5   N  1S          0.55735   0.00000  -0.00007   0.00000   0.00000
  90        2S          0.46576   0.00000  -0.00004   0.00007   0.00000
  91        2PX        -0.00034  -0.00023   0.00039   0.00005   0.00004
  92        2PY        -0.00020   0.00040   0.00022   0.00003  -0.00007
  93        2PZ         0.00000   0.00000   0.00000   0.00000   0.00000
  94        3S          0.01580   0.00001   0.00098  -0.00024   0.00000
  95        3PX         0.00134   0.00049  -0.00101  -0.00044  -0.00023
  96        3PY         0.00079  -0.00086  -0.00058  -0.00026   0.00038
  97        3PZ         0.00000   0.00000   0.00000   0.00000   0.00000
  98        4S         -0.01429  -0.00005  -0.00356  -0.00113   0.00000
  99        4PX        -0.00354   0.00053  -0.00162   0.00062  -0.00046
 100        4PY        -0.00208  -0.00095  -0.00094   0.00036   0.00078
 101        4PZ         0.00000   0.00000   0.00000   0.00000   0.00000
 102        5S          0.00331   0.00016   0.01134   0.00644   0.00000
 103        5PX         0.00046  -0.00247   0.00562   0.00433   0.00177
 104        5PY         0.00027   0.00438   0.00323   0.00255  -0.00300
 105        5PZ         0.00000   0.00000   0.00000   0.00000   0.00000
 106        6D 0       -0.00043   0.00001   0.00088   0.00012   0.00000
 107        6D+1        0.00000   0.00000   0.00000   0.00000   0.00000
 108        6D-1        0.00000   0.00000   0.00000   0.00000   0.00000
 109        6D+2       -0.00009   0.00097   0.00012   0.00020  -0.00024
 110        6D-2       -0.00017  -0.00053   0.00024   0.00035   0.00013
 111 6   H  1S          0.00004   0.00000   0.00003  -0.00007   0.00000
 112        2S         -0.00064  -0.00002  -0.00107  -0.00001   0.00000
 113        3S          0.00077   0.00003   0.00222   0.00299   0.00000
 114 7   H  1S         -0.00021  -0.00016   0.00000  -0.00013  -0.00004
 115        2S          0.00057   0.00074  -0.00004  -0.00006   0.00029
 116        3S          0.00132   0.00028   0.00193   0.00085   0.00047
 117 8   H  1S         -0.00004   0.00006  -0.00018   0.00009   0.00023
 118        2S         -0.00045  -0.00011  -0.00011  -0.00059  -0.00084
 119        3S         -0.00050  -0.00044   0.00025   0.00143  -0.00059
 120 9   H  1S         -0.00004  -0.00006  -0.00018   0.00009  -0.00023
 121        2S         -0.00045   0.00010  -0.00012  -0.00059   0.00084
 122        3S         -0.00050   0.00045   0.00024   0.00143   0.00059
 123 10  H  1S         -0.00021   0.00016  -0.00001  -0.00013   0.00004
 124        2S          0.00057  -0.00074  -0.00002  -0.00006  -0.00029
 125        3S          0.00132  -0.00023   0.00193   0.00085  -0.00047
                           6         7         8         9        10
                           O         O         O         O         O
     Eigenvalues --    -0.97979  -0.77603  -0.72353  -0.59471  -0.56830
   1 1   C  1S         -0.04807  -0.02170  -0.07624  -0.03352   0.01417
   2        2S         -0.07394  -0.03365  -0.11883  -0.05246   0.02230
   3        2PX        -0.03540   0.04907  -0.00289  -0.01959   0.09708
   4        2PY         0.03221   0.03374   0.00897   0.02059   0.04046
   5        2PZ         0.00000   0.00000   0.00000   0.00000   0.00000
   6        3S          0.18949   0.08834   0.32174   0.14464  -0.06409
   7        3PX        -0.05485   0.07621  -0.00442  -0.03017   0.13838
   8        3PY         0.04443   0.04936  -0.00003   0.02467   0.06220
   9        3PZ         0.00000   0.00000   0.00000   0.00001   0.00000
  10        4S          0.07457   0.03916   0.15828   0.06387   0.01317
  11        4PX        -0.00645   0.01285   0.00462  -0.00890   0.04363
  12        4PY        -0.00106   0.00287  -0.01167  -0.01793   0.05989
  13        4PZ         0.00000   0.00000   0.00000   0.00000   0.00000
  14        5S          0.10487   0.09076   0.02972  -0.04270   0.17474
  15        5PX         0.00950   0.01964  -0.02511   0.00547   0.02935
  16        5PY         0.02455   0.01716  -0.00174  -0.01828   0.03643
  17        5PZ         0.00000   0.00000   0.00000   0.00000   0.00000
  18        6D 0       -0.01370  -0.00402  -0.01234  -0.00540   0.00374
  19        6D+1        0.00000   0.00000   0.00000   0.00000   0.00000
  20        6D-1        0.00000   0.00000   0.00000   0.00000   0.00000
  21        6D+2        0.00251  -0.01380  -0.00188  -0.00986  -0.00149
  22        6D-2       -0.01163   0.01099   0.00258  -0.01385   0.01076
  23 2   C  1S         -0.02458  -0.07057  -0.03770   0.04188  -0.05595
  24        2S         -0.03768  -0.10933  -0.05849   0.06590  -0.08810
  25        2PX        -0.02456  -0.03408  -0.01291  -0.04538   0.03133
  26        2PY        -0.00237   0.01318  -0.04384  -0.05255  -0.04804
  27        2PZ         0.00000   0.00000   0.00000   0.00000   0.00000
  28        3S          0.09408   0.28606   0.15403  -0.17940   0.24114
  29        3PX        -0.03414  -0.03904  -0.01152  -0.07457   0.05895
  30        3PY        -0.00535   0.02374  -0.06804  -0.07928  -0.07126
  31        3PZ         0.00000   0.00000   0.00000   0.00001   0.00000
  32        4S          0.04666   0.15580   0.10844  -0.11825   0.10701
  33        4PX        -0.01414  -0.00982  -0.01834  -0.03516   0.07083
  34        4PY        -0.00060   0.00256  -0.01592  -0.03091  -0.03532
  35        4PZ         0.00000   0.00000   0.00000   0.00000   0.00000
  36        5S         -0.07640  -0.09540  -0.11547   0.03095  -0.32177
  37        5PX         0.01011   0.02183   0.02629  -0.01659   0.07758
  38        5PY         0.01438   0.01623  -0.03004   0.00559   0.01413
  39        5PZ         0.00000   0.00001   0.00000   0.00000   0.00000
  40        6D 0       -0.00685  -0.01284  -0.00564   0.00516  -0.00700
  41        6D+1        0.00000   0.00000   0.00000   0.00000   0.00000
  42        6D-1        0.00000   0.00000   0.00000   0.00000   0.00000
  43        6D+2        0.00373   0.00339   0.00290   0.00039   0.01200
  44        6D-2        0.00186  -0.00658   0.01242   0.00956   0.00382
  45 3   C  1S         -0.02458  -0.07057   0.03770   0.04188   0.05595
  46        2S         -0.03769  -0.10934   0.05849   0.06590   0.08810
  47        2PX        -0.01400  -0.00503   0.04459  -0.06797   0.02678
  48        2PY        -0.02032  -0.03619  -0.01000  -0.01415  -0.05072
  49        2PZ         0.00000   0.00001   0.00000   0.00000   0.00000
  50        3S          0.09409   0.28607  -0.15402  -0.17939  -0.24114
  51        3PX        -0.02127   0.00179   0.06507  -0.10552   0.03366
  52        3PY        -0.02725  -0.04566  -0.02297  -0.02669  -0.08614
  53        3PZ         0.00000   0.00001  -0.00001   0.00000   0.00000
  54        4S          0.04675   0.15586  -0.10846  -0.11823  -0.10701
  55        4PX        -0.00741  -0.00254   0.02283  -0.04408  -0.00352
  56        4PY        -0.01211  -0.00985   0.00832  -0.01572  -0.07906
  57        4PZ         0.00000   0.00000   0.00000   0.00000   0.00001
  58        5S         -0.07643  -0.09557   0.11556   0.03131   0.32178
  59        5PX         0.01746   0.02482   0.01347  -0.00319  -0.05003
  60        5PY         0.00187   0.01123  -0.03757  -0.01728  -0.06098
  61        5PZ         0.00000  -0.00001   0.00000   0.00000   0.00001
  62        6D 0       -0.00685  -0.01284   0.00564   0.00516   0.00700
  63        6D+1        0.00000   0.00000   0.00000   0.00000   0.00000
  64        6D-1        0.00000   0.00000   0.00000   0.00000   0.00000
  65        6D+2       -0.00039  -0.00738  -0.00902   0.00791   0.00309
  66        6D-2        0.00415  -0.00060  -0.00903   0.00539  -0.01220
  67 4   C  1S         -0.04807  -0.02171   0.07624  -0.03352  -0.01417
  68        2S         -0.07394  -0.03365   0.11882  -0.05245  -0.02229
  69        2PX         0.01097   0.05333  -0.00644   0.00849  -0.08251
  70        2PY        -0.04659   0.02651   0.00689  -0.02713  -0.06522
  71        2PZ         0.00000   0.00000   0.00001   0.00000   0.00001
  72        3S          0.18950   0.08835  -0.32173   0.14464   0.06408
  73        3PX         0.01220   0.08016   0.00217   0.00692  -0.12157
  74        3PY        -0.06953   0.04265   0.00385  -0.03836  -0.09077
  75        3PZ        -0.00001   0.00000   0.00001   0.00000   0.00001
  76        4S          0.07452   0.03913  -0.15826   0.06387  -0.01315
  77        4PX        -0.00411   0.00872   0.00799  -0.02002  -0.07353
  78        4PY        -0.00509   0.00986  -0.00972   0.00094  -0.00906
  79        4PZ         0.00000   0.00000   0.00000   0.00000   0.00001
  80        5S          0.10487   0.09089  -0.02985  -0.04291  -0.17476
  81        5PX         0.02605   0.02457   0.01369  -0.01338  -0.04610
  82        5PY        -0.00364   0.00883   0.02113   0.01367  -0.00795
  83        5PZ         0.00000   0.00000   0.00000   0.00000   0.00001
  84        6D 0       -0.01370  -0.00402   0.01234  -0.00540  -0.00374
  85        6D+1        0.00000   0.00000   0.00000   0.00000   0.00000
  86        6D-1        0.00000   0.00000   0.00000   0.00000   0.00000
  87        6D+2       -0.01120   0.01662  -0.00319  -0.00655  -0.00993
  88        6D-2       -0.00401  -0.00591   0.00023  -0.01569  -0.00442
  89 5   N  1S         -0.09748   0.05488   0.00000   0.01630   0.00000
  90        2S         -0.15355   0.08733   0.00000   0.02634   0.00000
  91        2PX         0.02456   0.04997   0.05236   0.13885  -0.06467
  92        2PY         0.01445   0.02940  -0.08900   0.08170   0.10992
  93        2PZ         0.00000   0.00000   0.00000   0.00001   0.00001
  94        3S          0.42325  -0.25029   0.00000  -0.07580   0.00000
  95        3PX         0.02851   0.08469   0.07962   0.21272  -0.09553
  96        3PY         0.01678   0.04983  -0.13531   0.12516   0.16237
  97        3PZ         0.00000   0.00001  -0.00001   0.00002   0.00001
  98        4S          0.29421  -0.19699  -0.00002  -0.07974   0.00000
  99        4PX         0.00461   0.05562   0.04616   0.14762  -0.07087
 100        4PY         0.00272   0.03273  -0.07847   0.08686   0.12045
 101        4PZ         0.00000   0.00000   0.00000   0.00001   0.00001
 102        5S         -0.10390   0.00389   0.00008   0.03279   0.00000
 103        5PX        -0.03962  -0.00574  -0.01541   0.01167   0.00544
 104        5PY        -0.02333  -0.00338   0.02621   0.00686  -0.00930
 105        5PZ         0.00000   0.00000   0.00000   0.00000   0.00000
 106        6D 0       -0.01517   0.00530   0.00000   0.00349   0.00000
 107        6D+1        0.00000   0.00000   0.00000   0.00000   0.00000
 108        6D-1        0.00000   0.00000   0.00000   0.00000   0.00000
 109        6D+2        0.00317  -0.00200   0.01261  -0.00748  -0.00483
 110        6D-2        0.00571  -0.00359  -0.00701  -0.01347   0.00268
 111 6   H  1S          0.05871  -0.08510   0.00000  -0.13931  -0.00001
 112        2S          0.03485  -0.05697   0.00000  -0.13041   0.00000
 113        3S         -0.01772  -0.00911  -0.00001  -0.02949  -0.00002
 114 7   H  1S          0.01427   0.00319   0.05798   0.01912  -0.03330
 115        2S          0.00897   0.00216   0.05179   0.01637  -0.03135
 116        3S         -0.00375  -0.00636   0.00609  -0.00672  -0.00386
 117 8   H  1S          0.00484   0.03540   0.02594  -0.06474   0.08055
 118        2S          0.00512   0.02971   0.02498  -0.06589   0.07758
 119        3S          0.00242  -0.00088   0.00703  -0.01100   0.00850
 120 9   H  1S          0.00484   0.03540  -0.02594  -0.06474  -0.08055
 121        2S          0.00513   0.02971  -0.02498  -0.06589  -0.07758
 122        3S          0.00242  -0.00088  -0.00704  -0.01101  -0.00851
 123 10  H  1S          0.01427   0.00319  -0.05798   0.01912   0.03329
 124        2S          0.00896   0.00215  -0.05178   0.01636   0.03134
 125        3S         -0.00377  -0.00637  -0.00608  -0.00673   0.00387
                          11        12        13        14        15
                           O         O         O         O         O
     Eigenvalues --    -0.54820  -0.43518  -0.42792  -0.40879  -0.39374
   1 1   C  1S         -0.04257   0.00349  -0.00695   0.00000  -0.02189
   2        2S         -0.06754   0.00547  -0.01151   0.00000  -0.03471
   3        2PX         0.05180  -0.08867   0.08063   0.00002   0.07541
   4        2PY        -0.09760  -0.04152  -0.12158  -0.00002   0.08892
   5        2PZ         0.00000   0.00003  -0.00001   0.10582   0.00000
   6        3S          0.18622  -0.01247   0.02380  -0.00001   0.10086
   7        3PX         0.07436  -0.12544   0.11567   0.00003   0.09881
   8        3PY        -0.15544  -0.05727  -0.18017  -0.00002   0.12871
   9        3PZ         0.00000   0.00004  -0.00002   0.16631   0.00001
  10        4S          0.17713   0.01308   0.10280   0.00000   0.13137
  11        4PX         0.01915  -0.06417   0.04461   0.00001   0.05976
  12        4PY        -0.06558  -0.02333  -0.09289  -0.00001   0.10208
  13        4PZ         0.00000   0.00002  -0.00001   0.09591   0.00001
  14        5S         -0.04590   0.02959  -0.16990   0.00021  -0.04999
  15        5PX        -0.01469  -0.01269  -0.02037   0.00003   0.01653
  16        5PY        -0.01756   0.00616  -0.04790   0.00004  -0.00724
  17        5PZ         0.00000   0.00000   0.00000   0.01782   0.00000
  18        6D 0       -0.00427  -0.00143  -0.00230   0.00000   0.00148
  19        6D+1        0.00000  -0.00001   0.00000  -0.01403   0.00000
  20        6D-1        0.00000   0.00000   0.00000   0.01462   0.00000
  21        6D+2       -0.00956   0.00895  -0.02930  -0.00001  -0.00759
  22        6D-2        0.00825  -0.01836  -0.00147   0.00001   0.00610
  23 2   C  1S          0.00518   0.00472   0.01814   0.00000   0.00350
  24        2S          0.00805   0.00705   0.02875   0.00000   0.00579
  25        2PX         0.03306   0.12789  -0.00675  -0.00004  -0.13075
  26        2PY        -0.05891   0.03590   0.00440   0.00002  -0.05526
  27        2PZ         0.00000   0.00002  -0.00001   0.06938  -0.00001
  28        3S         -0.02163  -0.02063  -0.07956   0.00001  -0.00982
  29        3PX         0.04900   0.19087  -0.00915  -0.00006  -0.18887
  30        3PY        -0.08693   0.05049   0.00475   0.00002  -0.07649
  31        3PZ         0.00000   0.00003  -0.00001   0.10935  -0.00002
  32        4S         -0.00340   0.00897  -0.09660   0.00001  -0.11995
  33        4PX         0.02005   0.11026   0.00264  -0.00005  -0.08000
  34        4PY        -0.03541   0.02753  -0.00207   0.00001  -0.04149
  35        4PZ         0.00000   0.00002  -0.00001   0.06761  -0.00001
  36        5S          0.05854  -0.01921   0.17230  -0.00024   0.19055
  37        5PX        -0.00842   0.02165  -0.03330   0.00005  -0.03845
  38        5PY        -0.00892  -0.00673  -0.02524   0.00003   0.04022
  39        5PZ         0.00000   0.00000   0.00000  -0.00593  -0.00001
  40        6D 0        0.00136  -0.00139   0.00178   0.00000   0.00369
  41        6D+1        0.00000   0.00000   0.00000  -0.01298   0.00000
  42        6D-1        0.00000   0.00000   0.00000  -0.00173   0.00000
  43        6D+2       -0.00675   0.00458  -0.01803   0.00000  -0.02384
  44        6D-2        0.00593  -0.00009  -0.00346   0.00000   0.02072
  45 3   C  1S          0.00518   0.00471  -0.01814   0.00000  -0.00350
  46        2S          0.00805   0.00704  -0.02875  -0.00001  -0.00579
  47        2PX        -0.03544   0.09349  -0.00058  -0.00001   0.11183
  48        2PY         0.05751   0.09436   0.00801  -0.00003   0.08742
  49        2PZ         0.00000   0.00000  -0.00001   0.06938  -0.00002
  50        3S         -0.02165  -0.02061   0.07957   0.00002   0.00982
  51        3PX        -0.05219   0.13684   0.00027  -0.00001   0.15863
  52        3PY         0.08505   0.14234   0.01026  -0.00005   0.12791
  53        3PZ         0.00000   0.00000  -0.00002   0.10935  -0.00003
  54        4S         -0.00345   0.00893   0.09662  -0.00002   0.11993
  55        4PX        -0.02121   0.07762   0.00051   0.00000   0.07515
  56        4PY         0.03473   0.08306  -0.00334  -0.00002   0.04976
  57        4PZ         0.00000   0.00000  -0.00001   0.06762  -0.00001
  58        5S          0.05899  -0.01926  -0.17253   0.00029  -0.19046
  59        5PX        -0.01192   0.00455   0.03828  -0.00007  -0.01651
  60        5PY        -0.00310   0.02225   0.01687  -0.00004   0.05315
  61        5PZ         0.00000   0.00000  -0.00001  -0.00592  -0.00001
  62        6D 0        0.00136  -0.00139  -0.00178   0.00000  -0.00369
  63        6D+1        0.00000   0.00000   0.00000  -0.00782   0.00000
  64        6D-1        0.00000   0.00000   0.00000  -0.01051   0.00000
  65        6D+2        0.00861  -0.00250  -0.00659   0.00000  -0.03019
  66        6D-2       -0.00260   0.00384   0.01713   0.00000   0.00929
  67 4   C  1S         -0.04257   0.00349   0.00695   0.00000   0.02189
  68        2S         -0.06754   0.00547   0.01151   0.00000   0.03471
  69        2PX        -0.06016  -0.07934   0.06713   0.00003  -0.11438
  70        2PY         0.09268  -0.05737  -0.12952   0.00000  -0.02274
  71        2PZ         0.00001   0.00003  -0.00002   0.10581   0.00001
  72        3S          0.18622  -0.01248  -0.02380   0.00000  -0.10085
  73        3PX        -0.09977  -0.11095   0.10133   0.00005  -0.16053
  74        3PY         0.14049  -0.08187  -0.18859   0.00000  -0.02387
  75        3PZ         0.00001   0.00005  -0.00004   0.16632   0.00002
  76        4S          0.17717   0.01311  -0.10281   0.00003  -0.13132
  77        4PX        -0.04801  -0.05152   0.05953   0.00005  -0.11824
  78        4PY         0.04858  -0.04480  -0.08411  -0.00001  -0.00269
  79        4PZ         0.00000   0.00003  -0.00002   0.09586   0.00001
  80        5S         -0.04627   0.02939   0.17019  -0.00026   0.04986
  81        5PX        -0.02256  -0.00082   0.05184  -0.00005  -0.00173
  82        5PY        -0.00428  -0.01410  -0.00545   0.00000  -0.01797
  83        5PZ         0.00000   0.00000  -0.00001   0.01785   0.00000
  84        6D 0       -0.00427  -0.00143   0.00230   0.00000  -0.00148
  85        6D+1        0.00000   0.00000   0.00000   0.00596   0.00000
  86        6D-1        0.00000   0.00000   0.00000  -0.01937   0.00000
  87        6D+2        0.01206  -0.02032  -0.01423   0.00001  -0.00918
  88        6D-2       -0.00376  -0.00209   0.02565   0.00000   0.00322
  89 5   N  1S          0.02131  -0.01654   0.00000   0.00000   0.00000
  90        2S          0.03401  -0.02678   0.00000   0.00001   0.00000
  91        2PX        -0.05594   0.11270  -0.07698  -0.00005  -0.02452
  92        2PY        -0.03291   0.06633   0.13080  -0.00002   0.04167
  93        2PZ         0.00000   0.00006  -0.00001   0.18683   0.00002
  94        3S         -0.09962   0.08760  -0.00001  -0.00002   0.00000
  95        3PX        -0.08140   0.16922  -0.11167  -0.00007  -0.03587
  96        3PY        -0.04788   0.09959   0.18973  -0.00004   0.06097
  97        3PZ         0.00000   0.00010  -0.00002   0.28395   0.00002
  98        4S         -0.09749   0.05440   0.00000  -0.00003  -0.00004
  99        4PX        -0.06159   0.09839  -0.08802  -0.00006  -0.04112
 100        4PY        -0.03624   0.05790   0.14956  -0.00003   0.06985
 101        4PZ         0.00000   0.00008  -0.00001   0.24976   0.00002
 102        5S         -0.03215  -0.02218  -0.00009   0.00000   0.00004
 103        5PX         0.00067   0.03385  -0.01204  -0.00004   0.00406
 104        5PY         0.00042   0.01992   0.02041  -0.00001  -0.00688
 105        5PZ         0.00000   0.00000   0.00000   0.00627   0.00000
 106        6D 0        0.00019   0.00342   0.00000   0.00000   0.00000
 107        6D+1        0.00000   0.00000   0.00000   0.00791   0.00000
 108        6D-1        0.00000   0.00000   0.00000   0.00465   0.00000
 109        6D+2       -0.00416  -0.01037  -0.01191   0.00000   0.00619
 110        6D-2       -0.00748  -0.01867   0.00662   0.00001  -0.00344
 111 6   H  1S          0.02526  -0.10450   0.00001   0.00003   0.00000
 112        2S          0.01986  -0.14727   0.00002   0.00004   0.00000
 113        3S          0.01370  -0.04395   0.00002   0.00000  -0.00001
 114 7   H  1S          0.11730   0.01843   0.12370   0.00002  -0.04016
 115        2S          0.12732   0.02297   0.15612   0.00002  -0.05052
 116        3S          0.03435   0.00837   0.07707   0.00001  -0.01915
 117 8   H  1S          0.02044   0.09565  -0.02962  -0.00003  -0.11674
 118        2S          0.02142   0.11455  -0.03741  -0.00004  -0.15292
 119        3S          0.00218   0.04251  -0.02261  -0.00001  -0.08679
 120 9   H  1S          0.02044   0.09566   0.02960  -0.00003   0.11673
 121        2S          0.02141   0.11456   0.03738  -0.00004   0.15289
 122        3S          0.00217   0.04251   0.02260  -0.00002   0.08678
 123 10  H  1S          0.11731   0.01840  -0.12371  -0.00002   0.04018
 124        2S          0.12732   0.02294  -0.15612  -0.00002   0.05055
 125        3S          0.03437   0.00837  -0.07708   0.00000   0.01918
                          16        17        18        19        20
                           O         O         O         V         V
     Eigenvalues --    -0.37921  -0.24788  -0.21699  -0.00330   0.02310
   1 1   C  1S          0.00098   0.00000   0.00000   0.00988   0.00001
   2        2S          0.00145   0.00000   0.00000   0.01735   0.00002
   3        2PX        -0.05054   0.00000  -0.00001  -0.01826   0.00000
   4        2PY        -0.08075   0.00000   0.00000   0.03584   0.00001
   5        2PZ        -0.00002  -0.01515   0.16803   0.00000   0.13782
   6        3S         -0.00856  -0.00001  -0.00001  -0.07460  -0.00005
   7        3PX        -0.07378   0.00000  -0.00001  -0.02408   0.00001
   8        3PY        -0.11405   0.00000  -0.00001   0.07182   0.00003
   9        3PZ        -0.00003  -0.02315   0.26244   0.00000   0.20491
  10        4S          0.06759   0.00000   0.00001   0.02431  -0.00014
  11        4PX        -0.06216   0.00000  -0.00002  -0.07390   0.00001
  12        4PY        -0.05831   0.00002   0.00000   0.10579   0.00001
  13        4PZ        -0.00002  -0.03611   0.26643   0.00001   0.43233
  14        5S          0.03403  -0.00001  -0.00001  -2.00903   0.00114
  15        5PX        -0.01167   0.00001  -0.00001  -1.55110   0.00024
  16        5PY         0.00769   0.00000   0.00000  -0.94161  -0.00013
  17        5PZ         0.00000  -0.00464   0.06270  -0.00003   0.76763
  18        6D 0       -0.00289   0.00000   0.00000   0.00407   0.00000
  19        6D+1        0.00000  -0.02751   0.00348   0.00000   0.01106
  20        6D-1        0.00000  -0.00876   0.00337   0.00000  -0.02244
  21        6D+2       -0.02199   0.00000   0.00000  -0.00507   0.00000
  22        6D-2       -0.00308   0.00000   0.00000   0.00214   0.00000
  23 2   C  1S         -0.00608   0.00000   0.00000   0.00845   0.00001
  24        2S         -0.00945   0.00000  -0.00001   0.01438   0.00001
  25        2PX        -0.06364   0.00001  -0.00001  -0.00960  -0.00001
  26        2PY         0.16655  -0.00001   0.00001  -0.00545  -0.00001
  27        2PZ        -0.00002  -0.15102   0.09723   0.00001  -0.07460
  28        3S          0.02986  -0.00001   0.00002  -0.04765  -0.00005
  29        3PX        -0.09495   0.00002  -0.00001  -0.02075  -0.00003
  30        3PY         0.23749  -0.00001   0.00002  -0.00192  -0.00001
  31        3PZ        -0.00004  -0.23543   0.15182   0.00001  -0.11282
  32        4S          0.00747  -0.00003   0.00003  -0.10080  -0.00008
  33        4PX        -0.05445   0.00003  -0.00002   0.00891   0.00000
  34        4PY         0.14170  -0.00001   0.00002  -0.00258  -0.00006
  35        4PZ        -0.00002  -0.21199   0.13910   0.00002  -0.21505
  36        5S         -0.00323   0.00000   0.00004   3.46325  -0.00257
  37        5PX        -0.00408   0.00000  -0.00001  -0.01922   0.00085
  38        5PY         0.00145   0.00001   0.00000  -0.88190  -0.00005
  39        5PZ         0.00000  -0.03441   0.02865  -0.00006  -0.37843
  40        6D 0        0.00159   0.00000   0.00000   0.00469   0.00000
  41        6D+1        0.00000   0.00748  -0.00437   0.00000  -0.01063
  42        6D-1        0.00000  -0.01144  -0.02357   0.00000  -0.02762
  43        6D+2       -0.01458   0.00000   0.00000   0.00808   0.00000
  44        6D-2       -0.01317   0.00000   0.00000  -0.00233   0.00000
  45 3   C  1S         -0.00608  -0.00001   0.00000   0.00845   0.00000
  46        2S         -0.00945  -0.00001  -0.00001   0.01438   0.00000
  47        2PX         0.11465  -0.00002   0.00000  -0.00942   0.00001
  48        2PY        -0.13654  -0.00002  -0.00002  -0.00574  -0.00001
  49        2PZ         0.00000  -0.15102  -0.09722  -0.00001  -0.07456
  50        3S          0.02985   0.00003   0.00002  -0.04765   0.00000
  51        3PX         0.16145  -0.00003   0.00000  -0.01176   0.00001
  52        3PY        -0.19837  -0.00003  -0.00002  -0.01721  -0.00001
  53        3PZ         0.00000  -0.23544  -0.15181  -0.00002  -0.11277
  54        4S          0.00747   0.00004  -0.00001  -0.10036   0.00001
  55        4PX         0.09740  -0.00004   0.00001   0.00185   0.00005
  56        4PY        -0.11644  -0.00004  -0.00001   0.00874  -0.00008
  57        4PZ         0.00000  -0.21198  -0.13904  -0.00004  -0.21488
  58        5S         -0.00352   0.00001  -0.00006   3.45701   0.00097
  59        5PX        -0.00072  -0.00002   0.00001  -0.77891   0.00010
  60        5PY        -0.00421  -0.00002   0.00000   0.41225  -0.00052
  61        5PZ         0.00000  -0.03440  -0.02871   0.00014  -0.37741
  62        6D 0        0.00159   0.00000   0.00000   0.00468   0.00000
  63        6D+1        0.00000  -0.00637   0.02273   0.00000  -0.02930
  64        6D-1        0.00000   0.01209  -0.00763   0.00000   0.00413
  65        6D+2       -0.00347   0.00000   0.00000  -0.00624   0.00000
  66        6D-2       -0.01934   0.00000   0.00000   0.00563   0.00000
  67 4   C  1S          0.00098   0.00000   0.00000   0.00988  -0.00001
  68        2S          0.00144   0.00000   0.00001   0.01735  -0.00001
  69        2PX        -0.09511   0.00001  -0.00002   0.02246   0.00000
  70        2PY        -0.00495   0.00001   0.00001  -0.03336   0.00001
  71        2PZ         0.00001  -0.01516  -0.16803   0.00002   0.13776
  72        3S         -0.00853   0.00001  -0.00003  -0.07456   0.00005
  73        3PX        -0.13549   0.00001  -0.00004   0.05108  -0.00001
  74        3PY        -0.00909   0.00001   0.00001  -0.05592   0.00002
  75        3PZ         0.00001  -0.02315  -0.26246   0.00002   0.20484
  76        4S          0.06762   0.00001   0.00001   0.02372   0.00005
  77        4PX        -0.08115   0.00001  -0.00001   0.05637   0.00004
  78        4PY        -0.02602   0.00001  -0.00001  -0.11596   0.00004
  79        4PZ         0.00000  -0.03615  -0.26638   0.00004   0.43214
  80        5S          0.03417   0.00000   0.00006  -1.99741   0.00036
  81        5PX         0.00108   0.00001   0.00001  -1.57432   0.00071
  82        5PY        -0.01396   0.00000   0.00000  -0.90085   0.00004
  83        5PZ         0.00000  -0.00467  -0.06272   0.00013   0.76739
  84        6D 0       -0.00289   0.00000   0.00000   0.00408   0.00001
  85        6D+1        0.00000  -0.02102  -0.00464   0.00000  -0.01423
  86        6D-1        0.00000  -0.01980  -0.00140   0.00000   0.02057
  87        6D+2        0.00900   0.00000   0.00000   0.00449   0.00000
  88        6D-2       -0.02030   0.00000   0.00000  -0.00317  -0.00001
  89 5   N  1S          0.01044   0.00000   0.00000   0.02454   0.00000
  90        2S          0.01672   0.00000   0.00000   0.04082   0.00000
  91        2PX         0.00121  -0.00001   0.00000   0.05429   0.00000
  92        2PY         0.00070  -0.00002   0.00000   0.03194   0.00000
  93        2PZ        -0.00002   0.17250  -0.00001   0.00000  -0.15471
  94        3S         -0.04830   0.00000   0.00000  -0.13329   0.00000
  95        3PX         0.00074  -0.00001   0.00000   0.09195   0.00000
  96        3PY         0.00042  -0.00003   0.00000   0.05410   0.00000
  97        3PZ        -0.00002   0.26014  -0.00002  -0.00001  -0.22944
  98        4S         -0.10237   0.00001  -0.00003  -0.36791   0.00005
  99        4PX        -0.01919  -0.00002  -0.00001   0.14152   0.00002
 100        4PY        -0.01131  -0.00004  -0.00001   0.08333  -0.00001
 101        4PZ        -0.00002   0.28303   0.00001   0.00000  -0.35350
 102        5S         -0.13077   0.00001  -0.00005  -2.19925   0.00042
 103        5PX        -0.01573  -0.00002  -0.00001   0.48306  -0.00014
 104        5PY        -0.00927  -0.00003   0.00000   0.28346   0.00009
 105        5PZ         0.00000   0.09483  -0.00002  -0.00002  -0.63777
 106        6D 0       -0.00056   0.00000   0.00000   0.00341   0.00000
 107        6D+1        0.00000  -0.00585   0.01264   0.00000   0.01480
 108        6D-1        0.00000  -0.00344  -0.02148   0.00000   0.00871
 109        6D+2       -0.00639   0.00000   0.00000   0.00157   0.00000
 110        6D-2       -0.01150   0.00000   0.00000   0.00282   0.00000
 111 6   H  1S         -0.01813   0.00000   0.00000   0.01626   0.00001
 112        2S         -0.03227  -0.00001   0.00000   0.09079   0.00003
 113        3S         -0.00358  -0.00002   0.00000   0.89032  -0.00014
 114 7   H  1S          0.07150   0.00000   0.00000  -0.00871   0.00000
 115        2S          0.09633   0.00000   0.00001   0.05841   0.00004
 116        3S          0.06235   0.00000   0.00001  -0.12248  -0.00008
 117 8   H  1S         -0.06701   0.00001   0.00000   0.00719   0.00000
 118        2S         -0.08897   0.00001  -0.00001   0.05480   0.00002
 119        3S         -0.04561   0.00000   0.00000  -0.11679  -0.00009
 120 9   H  1S         -0.06704  -0.00001  -0.00001   0.00719   0.00000
 121        2S         -0.08901  -0.00002  -0.00001   0.05486   0.00001
 122        3S         -0.04563  -0.00001  -0.00001  -0.11674   0.00002
 123 10  H  1S          0.07150   0.00000   0.00001  -0.00871   0.00001
 124        2S          0.09632  -0.00001   0.00002   0.05847  -0.00002
 125        3S          0.06236   0.00000   0.00002  -0.12271   0.00011
                          21        22        23        24        25
                           V         V         V         V         V
     Eigenvalues --     0.02676   0.03026   0.04810   0.05079   0.06223
   1 1   C  1S         -0.01558   0.00483  -0.00849  -0.02191   0.00001
   2        2S         -0.02665   0.00772  -0.01395  -0.03539   0.00002
   3        2PX         0.00308   0.01114  -0.00045  -0.00673   0.00000
   4        2PY        -0.04938   0.00393  -0.00424  -0.02348  -0.00002
   5        2PZ         0.00005  -0.00003  -0.00004   0.00000  -0.08793
   6        3S          0.09677  -0.01374   0.04024   0.08361  -0.00006
   7        3PX         0.00256   0.01519  -0.01013  -0.01166   0.00001
   8        3PY        -0.10926   0.00381  -0.01839  -0.06525  -0.00003
   9        3PZ         0.00007  -0.00004  -0.00005   0.00000  -0.13416
  10        4S          0.17432  -0.18053   0.31813   0.66623  -0.00002
  11        4PX         0.03624   0.01370   0.05673  -0.12129  -0.00008
  12        4PY         0.04312   0.02697   0.16928   0.09821  -0.00002
  13        4PZ         0.00016  -0.00008  -0.00012   0.00001  -0.29490
  14        5S          5.00932   3.86018  14.88951   3.89728   0.00377
  15        5PX         0.43732   0.59849   1.99668  -0.56289   0.00120
  16        5PY         2.45659   0.91277   3.63164   2.10249   0.00089
  17        5PZ         0.00039  -0.00027   0.00035  -0.00021  -1.06399
  18        6D 0       -0.00510   0.00431  -0.00020  -0.00052   0.00002
  19        6D+1        0.00000   0.00000   0.00000   0.00000   0.02549
  20        6D-1       -0.00001   0.00000   0.00000   0.00000   0.02290
  21        6D+2       -0.00801  -0.00134   0.00179  -0.01123   0.00001
  22        6D-2       -0.00237  -0.01136  -0.01219   0.00678   0.00000
  23 2   C  1S         -0.00236   0.01472   0.02201   0.00821   0.00000
  24        2S         -0.00445   0.02474   0.03626   0.01403   0.00000
  25        2PX         0.02408  -0.04719  -0.02316  -0.00476   0.00002
  26        2PY         0.00825   0.01445   0.00000  -0.00302   0.00000
  27        2PZ        -0.00003   0.00002   0.00000   0.00003   0.15261
  28        3S          0.02457  -0.08711  -0.11158  -0.05110   0.00001
  29        3PX         0.04787  -0.10679  -0.06800  -0.01153   0.00004
  30        3PY        -0.00169   0.01257   0.00523   0.00237   0.00000
  31        3PZ        -0.00005   0.00003   0.00000   0.00004   0.22739
  32        4S         -0.15630  -0.11510  -0.54194  -0.08215   0.00005
  33        4PX         0.10517  -0.05329   0.22806   0.07068   0.00006
  34        4PY         0.05900   0.03571  -0.05407   0.02817  -0.00002
  35        4PZ        -0.00009   0.00005   0.00003   0.00009   0.49501
  36        5S         -5.29366  -3.24319 -24.70670  -3.12043  -0.00330
  37        5PX         0.45718   1.57926   6.03965   1.30183  -0.00020
  38        5PY         0.23182   0.34579   0.32263   0.20170   0.00076
  39        5PZ        -0.00009   0.00027   0.00035   0.00013   1.61310
  40        6D 0       -0.00187   0.00494   0.00128   0.00492   0.00002
  41        6D+1        0.00000   0.00000   0.00001   0.00000   0.02468
  42        6D-1       -0.00001   0.00000   0.00000   0.00000  -0.01167
  43        6D+2        0.00320  -0.00513  -0.01230  -0.00200   0.00000
  44        6D-2        0.00369   0.00429  -0.00195   0.01041  -0.00001
  45 3   C  1S          0.00232   0.01472  -0.02205   0.00814   0.00000
  46        2S          0.00438   0.02474  -0.03633   0.01390  -0.00001
  47        2PX        -0.01888  -0.01035   0.01128  -0.00487   0.00000
  48        2PY        -0.01688  -0.04832   0.02029  -0.00260   0.00001
  49        2PZ        -0.00002   0.00001   0.00000  -0.00002  -0.15269
  50        3S         -0.02432  -0.08714   0.11180  -0.05065   0.00002
  51        3PX        -0.02163  -0.04093   0.02849  -0.00342   0.00001
  52        3PY        -0.04232  -0.09959   0.06210  -0.01094   0.00002
  53        3PZ        -0.00003   0.00002   0.00000  -0.00004  -0.22749
  54        4S          0.15672  -0.11449   0.54227  -0.08018   0.00011
  55        4PX        -0.10273   0.00471  -0.06356   0.05861  -0.00004
  56        4PY        -0.06304  -0.06411  -0.22576   0.04710   0.00005
  57        4PZ        -0.00005   0.00004   0.00006  -0.00010  -0.49529
  58        5S          5.30194  -3.20135  24.71626  -3.06188  -0.00244
  59        5PX        -0.42755   1.06753  -3.21822   0.80228   0.00040
  60        5PY        -0.29038   1.20703  -5.12683   1.02472  -0.00072
  61        5PZ         0.00009  -0.00027   0.00094  -0.00021  -1.61259
  62        6D 0        0.00186   0.00494  -0.00130   0.00493   0.00002
  63        6D+1       -0.00001   0.00000   0.00001   0.00000  -0.00178
  64        6D-1        0.00000   0.00000   0.00000   0.00000  -0.02722
  65        6D+2       -0.00145   0.00635  -0.00488   0.00989   0.00000
  66        6D-2       -0.00465  -0.00210   0.01145   0.00385  -0.00001
  67 4   C  1S          0.01554   0.00489   0.00856  -0.02189   0.00001
  68        2S          0.02660   0.00782   0.01407  -0.03536   0.00001
  69        2PX         0.04162   0.00900   0.00399  -0.02385  -0.00001
  70        2PY        -0.02670   0.00773  -0.00168   0.00554  -0.00001
  71        2PZ         0.00004  -0.00003  -0.00004   0.00003   0.08787
  72        3S         -0.09664  -0.01412  -0.04054   0.08363  -0.00005
  73        3PX         0.09418   0.01106   0.02119  -0.06273  -0.00001
  74        3PY        -0.05532   0.01122  -0.00013   0.02163   0.00000
  75        3PZ         0.00006  -0.00003  -0.00005   0.00004   0.13413
  76        4S         -0.17347  -0.18126  -0.32022   0.66432   0.00006
  77        4PX        -0.05546   0.02996  -0.17558   0.02591  -0.00006
  78        4PY        -0.01082  -0.00121   0.03317  -0.15386  -0.00013
  79        4PZ         0.00016  -0.00009  -0.00010   0.00009   0.29460
  80        5S         -5.01880   3.82893 -14.90176   3.89709   0.00334
  81        5PX        -2.36226   1.07669  -4.14883   1.56125   0.00122
  82        5PY         0.80869   0.08413   0.02369  -1.52230   0.00065
  83        5PZ         0.00047  -0.00015   0.00067  -0.00021   1.06478
  84        6D 0        0.00509   0.00432   0.00020  -0.00048   0.00002
  85        6D+1        0.00000   0.00000   0.00000   0.00000  -0.03241
  86        6D-1        0.00001   0.00000   0.00000   0.00000  -0.01115
  87        6D+2       -0.00218  -0.00894   0.01126   0.01171   0.00000
  88        6D-2        0.00808  -0.00711   0.00495  -0.00594   0.00001
  89 5   N  1S          0.00003  -0.01057  -0.00004   0.02514   0.00000
  90        2S          0.00005  -0.01747  -0.00007   0.04131  -0.00001
  91        2PX        -0.00560  -0.03231   0.00512   0.01161  -0.00003
  92        2PY         0.00965  -0.01899  -0.00874   0.00679  -0.00002
  93        2PZ        -0.00005   0.00003   0.00002   0.00000  -0.00001
  94        3S         -0.00016   0.05482   0.00022  -0.12631   0.00001
  95        3PX        -0.00367  -0.05676   0.00932   0.02699  -0.00004
  96        3PY         0.00649  -0.03339  -0.01592   0.01581  -0.00003
  97        3PZ        -0.00008   0.00004   0.00002   0.00000  -0.00002
  98        4S         -0.00035   0.13604   0.00087  -0.46082   0.00012
  99        4PX        -0.02802  -0.08608  -0.02351  -0.03735  -0.00015
 100        4PY         0.04794  -0.05059   0.04004  -0.02174  -0.00013
 101        4PZ        -0.00012   0.00007   0.00007  -0.00002   0.00001
 102        5S         -0.00184   0.07888   0.00525  -3.20967  -0.00045
 103        5PX         0.07664   0.50218   0.00142  -0.47039  -0.00077
 104        5PY        -0.13251   0.29561  -0.00178  -0.28018  -0.00053
 105        5PZ        -0.00024   0.00015   0.00004   0.00003  -0.00018
 106        6D 0        0.00000  -0.00061   0.00000   0.00159   0.00001
 107        6D+1        0.00000   0.00000  -0.00001   0.00000  -0.01134
 108        6D-1        0.00000   0.00000   0.00000   0.00000   0.01927
 109        6D+2        0.00324   0.00366   0.00381  -0.00449   0.00000
 110        6D-2       -0.00182   0.00656  -0.00210  -0.00808   0.00000
 111 6   H  1S         -0.00001   0.00526  -0.00003   0.00971  -0.00003
 112        2S          0.00014  -0.05948  -0.00008   0.04676  -0.00009
 113        3S         -0.00025   0.15754  -0.00095   0.31221  -0.00085
 114 7   H  1S          0.01857   0.00164  -0.00599  -0.00063  -0.00002
 115        2S         -0.04294   0.03460  -0.00441  -0.11164  -0.00002
 116        3S          0.32114  -0.02293  -0.01457   0.32311  -0.00033
 117 8   H  1S          0.01153  -0.02175  -0.00682  -0.00215  -0.00001
 118        2S         -0.02481   0.06362   0.03262   0.00965  -0.00007
 119        3S          0.17070  -0.34218  -0.21304  -0.13352  -0.00010
 120 9   H  1S         -0.01145  -0.02179   0.00683  -0.00215  -0.00002
 121        2S          0.02459   0.06376  -0.03271   0.00968  -0.00008
 122        3S         -0.16950  -0.34292   0.21360  -0.13329  -0.00012
 123 10  H  1S         -0.01858   0.00158   0.00599  -0.00063  -0.00002
 124        2S          0.04273   0.03477   0.00473  -0.11153  -0.00002
 125        3S         -0.32069  -0.02397   0.01339   0.32235  -0.00033
                          26        27        28        29        30
                           V         V         V         V         V
     Eigenvalues --     0.06460   0.07357   0.09525   0.10160   0.10434
   1 1   C  1S          0.00000   0.00622   0.00000  -0.00460   0.00001
   2        2S          0.00000   0.01070   0.00000  -0.00717   0.00001
   3        2PX         0.00000  -0.00117  -0.00001   0.01710  -0.00003
   4        2PY         0.00001  -0.02085   0.00000  -0.00547   0.00001
   5        2PZ        -0.09347   0.00006  -0.06957   0.00008   0.06510
   6        3S          0.00000  -0.05502   0.00000   0.00973  -0.00003
   7        3PX         0.00000   0.02155  -0.00001   0.04032  -0.00006
   8        3PY         0.00001  -0.03319   0.00000  -0.01824   0.00001
   9        3PZ        -0.11969   0.00009  -0.07846   0.00010   0.07807
  10        4S          0.00012   0.25434  -0.00001   0.12052  -0.00021
  11        4PX        -0.00004  -0.14221   0.00002  -0.04340   0.00006
  12        4PY         0.00008   0.05416   0.00005  -0.05553   0.00011
  13        4PZ        -0.34571   0.00024  -0.27283   0.00039   0.32555
  14        5S          0.00532   6.70095  -0.00374   8.34479  -0.01206
  15        5PX        -0.00039   1.28227   0.00122  -4.75599   0.00604
  16        5PY         0.00101   1.76635  -0.00095   2.81091  -0.00317
  17        5PZ         0.63821   0.00097   1.16452  -0.00108  -1.01612
  18        6D 0        0.00000   0.02122   0.00000   0.00257  -0.00001
  19        6D+1        0.00072  -0.00002   0.00334   0.00000  -0.00342
  20        6D-1       -0.00748  -0.00002  -0.01071  -0.00001  -0.00237
  21        6D+2        0.00000   0.01382   0.00000  -0.01610   0.00002
  22        6D-2        0.00001   0.00194   0.00000   0.01149  -0.00002
  23 2   C  1S         -0.00001   0.00078   0.00000   0.00333   0.00000
  24        2S         -0.00001   0.00079   0.00000   0.00625   0.00000
  25        2PX         0.00000   0.02730   0.00000  -0.02495   0.00004
  26        2PY         0.00000   0.00285   0.00001  -0.00441   0.00001
  27        2PZ        -0.01826  -0.00012  -0.02542  -0.00011  -0.07301
  28        3S          0.00003  -0.00184   0.00001  -0.02721   0.00002
  29        3PX         0.00001   0.05521   0.00001  -0.05583   0.00009
  30        3PY         0.00000   0.00815   0.00000   0.00214   0.00000
  31        3PZ        -0.00758  -0.00018  -0.02265  -0.00012  -0.08379
  32        4S          0.00004  -0.05006  -0.00008   0.08606  -0.00014
  33        4PX         0.00011   0.13569   0.00000  -0.02376   0.00000
  34        4PY        -0.00004  -0.00175   0.00002  -0.04102   0.00007
  35        4PZ        -0.05801  -0.00043  -0.10055  -0.00044  -0.31187
  36        5S         -0.00419  -5.07383   0.00498 -11.07952   0.01014
  37        5PX         0.00100   0.18917  -0.00121   3.73233  -0.00489
  38        5PY         0.00074   1.01032   0.00074  -3.24553   0.00164
  39        5PZ         0.13671  -0.00121   0.46422   0.00206   1.14154
  40        6D 0        0.00000   0.01986   0.00000   0.00313  -0.00001
  41        6D+1        0.01513  -0.00002   0.00921   0.00001   0.00760
  42        6D-1        0.00810   0.00001   0.00296  -0.00002  -0.01103
  43        6D+2        0.00001  -0.01121   0.00000  -0.00674   0.00001
  44        6D-2        0.00001  -0.00366   0.00000   0.00564  -0.00001
  45 3   C  1S          0.00001   0.00082   0.00000  -0.00331   0.00000
  46        2S          0.00001   0.00084   0.00000  -0.00623   0.00001
  47        2PX        -0.00001   0.01579   0.00000   0.01602  -0.00001
  48        2PY        -0.00001   0.02244  -0.00001   0.01973  -0.00004
  49        2PZ        -0.01819   0.00013   0.02542  -0.00009  -0.07295
  50        3S         -0.00005  -0.00199  -0.00001   0.02713  -0.00003
  51        3PX        -0.00002   0.03387   0.00000   0.02534  -0.00002
  52        3PY        -0.00002   0.04427  -0.00002   0.04997  -0.00009
  53        3PZ        -0.00736   0.00019   0.02264  -0.00011  -0.08367
[...]
    15  Bq   0.000000   0.000000   0.000000   0.000000   0.000000   0.000000
    16  Bq   0.000000   0.000000   0.000000   0.000000   0.000000   0.000000
    17  Bq   0.000000   0.000000   0.000000   0.000000   0.000000   0.000000
    18  Bq   0.000000   0.000000   0.000000   0.000000   0.000000   0.000000
    19  Bq   0.000000   0.000000   0.000000   0.000000   0.000000   0.000000
    20  Bq   0.000000   0.000000   0.000000   0.000000   0.000000   0.000000
    21  Bq   0.000000   0.000000   0.000000   0.000000   0.000000   0.000000
    22  Bq   0.000000   0.000000   0.000000   0.000000   0.000000   0.000000
    23  Bq   0.000000   0.000000   0.000000   0.000000   0.000000   0.000000
    24  Bq   0.000000   0.000000   0.000000   0.000000   0.000000   0.000000
    25  Bq   0.000000   0.000000   0.000000   0.000000   0.000000   0.000000
    26  Bq   0.000000   0.000000   0.000000   0.000000   0.000000   0.000000
    27  Bq   0.000000   0.000000   0.000000   0.000000   0.000000   0.000000
    28  Bq   0.000000   0.000000   0.000000   0.000000   0.000000   0.000000
    29  Bq   0.000000   0.000000   0.000000   0.000000   0.000000   0.000000
    30  Bq   0.000000   0.000000   0.000000   0.000000   0.000000   0.000000
              13         14         15         16         17         18
     1  C    0.000000   0.000000   0.000000   0.000000   0.000000   0.000000
     2  C    0.000000   0.000000   0.000000   0.000000   0.000000   0.000000
     3  C    0.000000   0.000000   0.000000   0.000000   0.000000   0.000000
     4  C    0.000000   0.000000   0.000000   0.000000   0.000000   0.000000
     5  N    0.000000   0.000000   0.000000   0.000000   0.000000   0.000000
     6  H    0.000000   0.000000   0.000000   0.000000   0.000000   0.000000
     7  H    0.000000   0.000000   0.000000   0.000000   0.000000   0.000000
     8  H    0.000000   0.000000   0.000000   0.000000   0.000000   0.000000
     9  H    0.000000   0.000000   0.000000   0.000000   0.000000   0.000000
    10  H    0.000000   0.000000   0.000000   0.000000   0.000000   0.000000
    11  Bq   0.000000   0.000000   0.000000   0.000000   0.000000   0.000000
    12  Bq   0.000000   0.000000   0.000000   0.000000   0.000000   0.000000
    13  Bq   0.000000   0.000000   0.000000   0.000000   0.000000   0.000000
    14  Bq   0.000000   0.000000   0.000000   0.000000   0.000000   0.000000
    15  Bq   0.000000   0.000000   0.000000   0.000000   0.000000   0.000000
    16  Bq   0.000000   0.000000   0.000000   0.000000   0.000000   0.000000
    17  Bq   0.000000   0.000000   0.000000   0.000000   0.000000   0.000000
    18  Bq   0.000000   0.000000   0.000000   0.000000   0.000000   0.000000
    19  Bq   0.000000   0.000000   0.000000   0.000000   0.000000   0.000000
    20  Bq   0.000000   0.000000   0.000000   0.000000   0.000000   0.000000
    21  Bq   0.000000   0.000000   0.000000   0.000000   0.000000   0.000000
    22  Bq   0.000000   0.000000   0.000000   0.000000   0.000000   0.000000
    23  Bq   0.000000   0.000000   0.000000   0.000000   0.000000   0.000000
    24  Bq   0.000000   0.000000   0.000000   0.000000   0.000000   0.000000
    25  Bq   0.000000   0.000000   0.000000   0.000000   0.000000   0.000000
    26  Bq   0.000000   0.000000   0.000000   0.000000   0.000000   0.000000
    27  Bq   0.000000   0.000000   0.000000   0.000000   0.000000   0.000000
    28  Bq   0.000000   0.000000   0.000000   0.000000   0.000000   0.000000
    29  Bq   0.000000   0.000000   0.000000   0.000000   0.000000   0.000000
    30  Bq   0.000000   0.000000   0.000000   0.000000   0.000000   0.000000
              19         20         21         22         23         24
     1  C    0.000000   0.000000   0.000000   0.000000   0.000000   0.000000
     2  C    0.000000   0.000000   0.000000   0.000000   0.000000   0.000000
     3  C    0.000000   0.000000   0.000000   0.000000   0.000000   0.000000
     4  C    0.000000   0.000000   0.000000   0.000000   0.000000   0.000000
     5  N    0.000000   0.000000   0.000000   0.000000   0.000000   0.000000
     6  H    0.000000   0.000000   0.000000   0.000000   0.000000   0.000000
     7  H    0.000000   0.000000   0.000000   0.000000   0.000000   0.000000
     8  H    0.000000   0.000000   0.000000   0.000000   0.000000   0.000000
     9  H    0.000000   0.000000   0.000000   0.000000   0.000000   0.000000
    10  H    0.000000   0.000000   0.000000   0.000000   0.000000   0.000000
    11  Bq   0.000000   0.000000   0.000000   0.000000   0.000000   0.000000
    12  Bq   0.000000   0.000000   0.000000   0.000000   0.000000   0.000000
    13  Bq   0.000000   0.000000   0.000000   0.000000   0.000000   0.000000
    14  Bq   0.000000   0.000000   0.000000   0.000000   0.000000   0.000000
    15  Bq   0.000000   0.000000   0.000000   0.000000   0.000000   0.000000
    16  Bq   0.000000   0.000000   0.000000   0.000000   0.000000   0.000000
    17  Bq   0.000000   0.000000   0.000000   0.000000   0.000000   0.000000
    18  Bq   0.000000   0.000000   0.000000   0.000000   0.000000   0.000000
    19  Bq   0.000000   0.000000   0.000000   0.000000   0.000000   0.000000
    20  Bq   0.000000   0.000000   0.000000   0.000000   0.000000   0.000000
    21  Bq   0.000000   0.000000   0.000000   0.000000   0.000000   0.000000
    22  Bq   0.000000   0.000000   0.000000   0.000000   0.000000   0.000000
    23  Bq   0.000000   0.000000   0.000000   0.000000   0.000000   0.000000
    24  Bq   0.000000   0.000000   0.000000   0.000000   0.000000   0.000000
    25  Bq   0.000000   0.000000   0.000000   0.000000   0.000000   0.000000
    26  Bq   0.000000   0.000000   0.000000   0.000000   0.000000   0.000000
    27  Bq   0.000000   0.000000   0.000000   0.000000   0.000000   0.000000
    28  Bq   0.000000   0.000000   0.000000   0.000000   0.000000   0.000000
    29  Bq   0.000000   0.000000   0.000000   0.000000   0.000000   0.000000
    30  Bq   0.000000   0.000000   0.000000   0.000000   0.000000   0.000000
              25         26         27         28         29         30
     1  C    0.000000   0.000000   0.000000   0.000000   0.000000   0.000000
     2  C    0.000000   0.000000   0.000000   0.000000   0.000000   0.000000
     3  C    0.000000   0.000000   0.000000   0.000000   0.000000   0.000000
     4  C    0.000000   0.000000   0.000000   0.000000   0.000000   0.000000
     5  N    0.000000   0.000000   0.000000   0.000000   0.000000   0.000000
     6  H    0.000000   0.000000   0.000000   0.000000   0.000000   0.000000
     7  H    0.000000   0.000000   0.000000   0.000000   0.000000   0.000000
     8  H    0.000000   0.000000   0.000000   0.000000   0.000000   0.000000
     9  H    0.000000   0.000000   0.000000   0.000000   0.000000   0.000000
    10  H    0.000000   0.000000   0.000000   0.000000   0.000000   0.000000
    11  Bq   0.000000   0.000000   0.000000   0.000000   0.000000   0.000000
    12  Bq   0.000000   0.000000   0.000000   0.000000   0.000000   0.000000
    13  Bq   0.000000   0.000000   0.000000   0.000000   0.000000   0.000000
    14  Bq   0.000000   0.000000   0.000000   0.000000   0.000000   0.000000
    15  Bq   0.000000   0.000000   0.000000   0.000000   0.000000   0.000000
    16  Bq   0.000000   0.000000   0.000000   0.000000   0.000000   0.000000
    17  Bq   0.000000   0.000000   0.000000   0.000000   0.000000   0.000000
    18  Bq   0.000000   0.000000   0.000000   0.000000   0.000000   0.000000
    19  Bq   0.000000   0.000000   0.000000   0.000000   0.000000   0.000000
    20  Bq   0.000000   0.000000   0.000000   0.000000   0.000000   0.000000
    21  Bq   0.000000   0.000000   0.000000   0.000000   0.000000   0.000000
    22  Bq   0.000000   0.000000   0.000000   0.000000   0.000000   0.000000
    23  Bq   0.000000   0.000000   0.000000   0.000000   0.000000   0.000000
    24  Bq   0.000000   0.000000   0.000000   0.000000   0.000000   0.000000
    25  Bq   0.000000   0.000000   0.000000   0.000000   0.000000   0.000000
    26  Bq   0.000000   0.000000   0.000000   0.000000   0.000000   0.000000
    27  Bq   0.000000   0.000000   0.000000   0.000000   0.000000   0.000000
    28  Bq   0.000000   0.000000   0.000000   0.000000   0.000000   0.000000
    29  Bq   0.000000   0.000000   0.000000   0.000000   0.000000   0.000000
    30  Bq   0.000000   0.000000   0.000000   0.000000   0.000000   0.000000
 Mulliken charges:
               1
     1  C   -0.348215
     2  C   -0.162966
     3  C   -0.163075
     4  C   -0.347943
     5  N   -0.207154
     6  H    0.384909
     7  H    0.212297
     8  H    0.209936
     9  H    0.209911
    10  H    0.212300
    11  Bq   0.000000
    12  Bq   0.000000
    13  Bq   0.000000
    14  Bq   0.000000
    15  Bq   0.000000
    16  Bq   0.000000
    17  Bq   0.000000
    18  Bq   0.000000
    19  Bq   0.000000
    20  Bq   0.000000
    21  Bq   0.000000
    22  Bq   0.000000
    23  Bq   0.000000
    24  Bq   0.000000
    25  Bq   0.000000
    26  Bq   0.000000
    27  Bq   0.000000
    28  Bq   0.000000
    29  Bq   0.000000
    30  Bq   0.000000
 Sum of Mulliken charges =   0.00000
 Mulliken charges with hydrogens summed into heavy atoms:
               1
     1  C   -0.135919
     2  C    0.046970
     3  C    0.046837
     4  C   -0.135644
     5  N    0.177756
    11  Bq   0.000000
    12  Bq   0.000000
    13  Bq   0.000000
    14  Bq   0.000000
    15  Bq   0.000000
    16  Bq   0.000000
    17  Bq   0.000000
    18  Bq   0.000000
    19  Bq   0.000000
    20  Bq   0.000000
    21  Bq   0.000000
    22  Bq   0.000000
    23  Bq   0.000000
    24  Bq   0.000000
    25  Bq   0.000000
    26  Bq   0.000000
    27  Bq   0.000000
    28  Bq   0.000000
    29  Bq   0.000000
    30  Bq   0.000000
 Electronic spatial extent (au):  <R**2>=            306.8594
 Charge=              0.0000 electrons
 Dipole moment (field-independent basis, Debye):
    X=             -1.6519    Y=             -0.9721    Z=             -0.0001  Tot=              1.9167
 Quadrupole moment (field-independent basis, Debye-Ang):
   XX=            -24.5564   YY=            -26.2560   ZZ=            -34.7602
   XY=              1.5293   XZ=              0.0002   YZ=              0.0001
 Traceless Quadrupole moment (field-independent basis, Debye-Ang):
   XX=              3.9678   YY=              2.2682   ZZ=             -6.2360
   XY=              1.5293   XZ=              0.0002   YZ=              0.0001
 Octapole moment (field-independent basis, Debye-Ang**2):
  XXX=             -7.5761  YYY=             -3.3808  ZZZ=              0.0004  XYY=             -2.5615
  XXY=             -2.5868  XXZ=              0.0000  XZZ=             -0.9207  YZZ=             -0.5432
  YYZ=             -0.0006  XYZ=             -0.0013
 Hexadecapole moment (field-independent basis, Debye-Ang**3):
 XXXX=           -160.6734 YYYY=           -175.0861 ZZZZ=            -43.8594 XXXY=              7.4237
 XXXZ=              0.0031 YYYX=              5.5471 YYYZ=              0.0000 ZZZX=              0.0025
 ZZZY=              0.0007 XXYY=            -55.1814 XXZZ=            -44.1265 YYZZ=            -45.9404
 XXYZ=              0.0014 YYXZ=              0.0002 ZZXY=              1.6322
 N-N= 1.609182389208D+02 E-N=-8.103612840504D+02  KE= 2.093433423848D+02
 Orbital energies and kinetic energies (alpha):
                                 1                 2
   1         O               -14.359915         22.051669
   2         O               -10.190854         15.955990
   3         O               -10.190843         15.956217
   4         O               -10.154421         15.954106
   5         O               -10.153988         15.955428
   6         O                -0.979790          1.858068
   7         O                -0.776028          1.675125
   8         O                -0.723532          1.677776
   9         O                -0.594708          1.492688
  10         O                -0.568298          1.509043
  11         O                -0.548195          1.212045
  12         O                -0.435185          1.432929
  13         O                -0.427917          1.427690
  14         O                -0.408792          1.213498
  15         O                -0.393744          1.380588
  16         O                -0.379206          1.397634
  17         O                -0.247875          1.340384
  18         O                -0.216986          1.180792
  19         V                -0.003302          0.363073
  20         V                 0.023103          1.265727
  21         V                 0.026756          0.245148
  22         V                 0.030256          0.274581
  23         V                 0.048101          0.260451
  24         V                 0.050789          0.374078
  25         V                 0.062229          1.031533
  26         V                 0.064597          0.360506
  27         V                 0.073570          0.286664
  28         V                 0.095252          0.275324
  29         V                 0.101597          0.235817
  30         V                 0.104341          0.390518
  31         V                 0.111207          0.309194
  32         V                 0.146633          0.549339
  33         V                 0.146652          0.357358
  34         V                 0.160155          0.374436
  35         V                 0.160930          0.697876
  36         V                 0.161902          0.336142
  37         V                 0.192786          0.799443
  38         V                 0.193274          0.555719
  39         V                 0.200199          0.700899
  40         V                 0.210580          1.154129
  41         V                 0.219516          0.706379
  42         V                 0.232983          0.685804
  43         V                 0.239808          0.911538
  44         V                 0.246512          1.008193
  45         V                 0.265849          0.927643
  46         V                 0.272527          1.143169
  47         V                 0.289268          0.797242
  48         V                 0.379751          1.468484
  49         V                 0.427899          1.498875
  50         V                 0.432902          1.129344
  51         V                 0.439560          1.896395
  52         V                 0.518044          1.482749
  53         V                 0.527620          1.578655
  54         V                 0.552980          1.458379
  55         V                 0.573460          1.401883
  56         V                 0.593097          1.506055
  57         V                 0.595349          1.637065
  58         V                 0.613011          1.604628
  59         V                 0.621383          1.894695
  60         V                 0.640647          1.658049
  61         V                 0.721502          1.766292
  62         V                 0.733355          2.213252
  63         V                 0.744004          2.417533
  64         V                 0.766657          2.125963
  65         V                 0.803951          2.118600
  66         V                 0.812484          1.656915
  67         V                 0.826862          2.034402
  68         V                 0.833156          2.377802
  69         V                 0.835443          2.162673
  70         V                 0.857871          2.264624
  71         V                 0.893718          2.377058
  72         V                 0.973222          2.295406
  73         V                 1.032796          2.233191
  74         V                 1.056577          2.014104
  75         V                 1.070369          2.135408
  76         V                 1.138460          2.078376
  77         V                 1.179414          2.605425
  78         V                 1.196050          2.214404
  79         V                 1.302131          2.329645
  80         V                 1.406282          2.510502
  81         V                 1.426224          2.635313
  82         V                 1.596607          2.898273
  83         V                 1.647053          2.940995
  84         V                 1.674357          2.912760
  85         V                 1.761913          3.133670
  86         V                 1.794466          3.002723
  87         V                 1.832929          3.039042
  88         V                 1.861363          2.938953
  89         V                 1.919816          3.268474
  90         V                 1.927815          3.047048
  91         V                 1.998372          3.653574
  92         V                 2.008798          3.223452
  93         V                 2.138041          3.888077
  94         V                 2.187187          4.243037
  95         V                 2.263159          3.843566
  96         V                 2.289758          4.013355
  97         V                 2.331710          4.240944
  98         V                 2.410556          4.683291
  99         V                 2.438690          3.890565
 100         V                 2.567183          4.685438
 101         V                 2.593260          4.875980
 102         V                 2.681753          4.847060
 103         V                 2.695405          6.283275
 104         V                 2.713355          5.083638
 105         V                 2.785820          6.153933
 106         V                 2.891381          6.224799
 107         V                 3.016898          6.365365
 108         V                 3.138096          6.460476
 109         V                 3.235118          6.005939
 110         V                 3.263014          6.725276
 111         V                 3.348038          6.443542
 112         V                 3.408915          5.706139
 113         V                 3.456745          6.713259
 114         V                 3.496628          6.926805
 115         V                 3.615129          7.134624
 116         V                 3.806712          7.373672
 117         V                 3.847575          8.961721
 118         V                 4.127810          7.753307
 119         V                 4.493153          9.291465
 120         V                 5.030500          9.218914
 121         V                23.469450         60.164075
 122         V                23.758590         60.279623
 123         V                24.055064         60.388729
 124         V                24.114174         60.371897
 125         V                35.470481         88.992322
 Total kinetic energy from orbitals= 2.093433423848D+02
 1\1\GINC-HOGWARTS\SP\RB3LYP\6-311+G(d)\C4H5N1\ANUJA\05-May-2014\0\\# B
 3LYP/6-311+G* NMR=GIAO POP=FULL SCF(MAXCYCLE=512)\\Pyrrole # Center 1\
 \0,1\C,0,0.2535,-1.15506,-0.00002\C,0,1.17634,-0.13392,0.00002\C,0,0.4
 5421,1.09334,-0.0001\C,0,-0.88659,0.78256,0.00008\N,0,-0.99748,-0.5869
 ,0.00001\H,0,-1.86418,-1.09687,-0.0001\H,0,0.38049,-2.22657,-0.00001\H
 ,0,2.24993,-0.25349,0.00004\H,0,0.87109,2.0899,-0.00017\H,0,-1.76159,1
 .41396,0.00015\Bq,0,0.,0.,-2.\Bq,0,0.,0.,-1.8\Bq,0,0.,0.,-1.6\Bq,0,0.,
 0.,-1.4\Bq,0,0.,0.,-1.2\Bq,0,0.,0.,-1.\Bq,0,0.,0.,-0.8\Bq,0,0.,0.,-0.6
 \Bq,0,0.,0.,-0.4\Bq,0,0.,0.,-0.2\Bq,0,0.,0.,0.\Bq,0,0.,0.,0.2\Bq,0,0.,
 0.,0.4\Bq,0,0.,0.,0.6\Bq,0,0.,0.,0.8\Bq,0,0.,0.,1.\Bq,0,0.,0.,1.2\Bq,0
 ,0.,0.,1.4\Bq,0,0.,0.,1.6\Bq,0,0.,0.,1.8\\Version=EM64L-G09RevD.01\HF=
 -210.2192445\RMSD=7.083e-09\Dipole=-0.6499126,-0.3824722,-0.0000411\Qu
 adrupole=2.9499335,1.686369,-4.6363025,1.1370216,0.0001186,0.0001108\P
 G=C01 [X(C4H5N1)]\\@


 ERROR IS THE FORCE THAT WELDS MEN TOGETHER....
 TRUTH IS COMMUNICATED TO MEN ONLY BY DEEDS OF TRUTH.
           TOLSTOI,MY RELIGION
 Job cpu time:       0 days  0 hours  1 minutes  1.7 seconds.
 File lengths (MBytes):  RWF=      9 Int=      0 D2E=      0 Chk=      2 Scr=      1
 Normal termination of Gaussian 09 at Mon May  5 18:47:53 2014.
