 Entering Gaussian System
 Charge =  0 Multiplicity = 1

                         Standard orientation:
 ---------------------------------------------------------------------
 Center     Atomic      Atomic             Coordinates (Angstroms)
 Number     Number       Type             X           Y           Z
 ---------------------------------------------------------------------
      1          6           0         1.397000    0.000000    0.000000
      2          6           0         0.698500    1.209837    0.000000
      3          6           0        -0.698500    1.209837    0.000000
      4          6           0        -1.397000    0.000000    0.000000
      5          6           0        -0.698500   -1.209837    0.000000
      6          6           0         0.698500   -1.209837    0.000000
      7          1           0         2.484000    0.000000    0.000000
      8          1           0         1.242000    2.151207    0.000000
      9          1           0        -1.242000    2.151207    0.000000
     10          1           0        -2.484000    0.000000    0.000000
     11          1           0        -1.242000   -2.151207    0.000000
     12          1           0         1.242000   -2.151207    0.000000
     13          0           0         0.000000    0.000000    0.000000
     14          0           0         0.000000    0.000000    0.500000
     15          0           0         0.000000    0.000000    1.000000
     16          0           0         0.000000    0.000000    1.200000
     17          0           0         0.000000    0.000000    1.400000
     18          0           0         0.000000    0.000000    1.600000
     19          0           0         0.000000    0.000000    1.800000
     20          0           0         0.000000    0.000000    2.000000
 ---------------------------------------------------------------------

 SCF GIAO Magnetic shielding tensor (ppm):
      1  C    Isotropic =      72.7630   Anisotropy =     182.1496
   XX=     -36.2018  YX=      -0.0000  ZX=      -0.0000
   XY=       0.0000  YY=      60.2947  ZY=       0.0000
   XZ=      -0.0000  YZ=       0.0000  ZZ=     194.1961
   Eigenvalues:     -36.2018      60.2947     194.1961
      2  C    Isotropic =      72.7630   Anisotropy =     182.1496
   XX=      36.1705  YX=     -41.7842  ZX=      -0.0000
   XY=     -41.7842  YY=     -12.0777  ZY=      -0.0000
   XZ=      -0.0000  YZ=       0.0000  ZZ=     194.1961
   Eigenvalues:     -36.2018      60.2947     194.1961
      3  C    Isotropic =      72.7630   Anisotropy =     182.1496
   XX=      36.1705  YX=      41.7842  ZX=       0.0000
   XY=      41.7842  YY=     -12.0777  ZY=       0.0000
   XZ=       0.0000  YZ=      -0.0000  ZZ=     194.1961
   Eigenvalues:     -36.2018      60.2947     194.1961
      4  C    Isotropic =      72.7630   Anisotropy =     182.1496
   XX=     -36.2018  YX=       0.0000  ZX=       0.0000
   XY=       0.0000  YY=      60.2947  ZY=      -0.0000
   XZ=      -0.0000  YZ=       0.0000  ZZ=     194.1961
   Eigenvalues:     -36.2018      60.2947     194.1961
      5  C    Isotropic =      72.7630   Anisotropy =     182.1496
   XX=      36.1705  YX=     -41.7842  ZX=      -0.0000
   XY=     -41.7842  YY=     -12.0777  ZY=       0.0000
   XZ=       0.0000  YZ=       0.0000  ZZ=     194.1961
   Eigenvalues:     -36.2018      60.2947     194.1961
      6  C    Isotropic =      72.7630   Anisotropy =     182.1496
   XX=      36.1705  YX=      41.7842  ZX=      -0.0000
   XY=      41.7842  YY=     -12.0777  ZY=       0.0000
   XZ=      -0.0000  YZ=      -0.0000  ZZ=     194.1961
   Eigenvalues:     -36.2018      60.2947     194.1961
      7  H    Isotropic =      25.0632   Anisotropy =       4.0541
   XX=      25.9611  YX=       0.0000  ZX=      -0.0000
   XY=      -0.0000  YY=      27.7659  ZY=      -0.0000
   XZ=       0.0000  YZ=       0.0000  ZZ=      21.4625
   Eigenvalues:      21.4625      25.9611      27.7659
      8  H    Isotropic =      25.0632   Anisotropy =       4.0541
   XX=      27.3147  YX=      -0.7815  ZX=      -0.0000
   XY=      -0.7815  YY=      26.4123  ZY=      -0.0000
   XZ=      -0.0000  YZ=      -0.0000  ZZ=      21.4625
   Eigenvalues:      21.4625      25.9611      27.7659
      9  H    Isotropic =      25.0632   Anisotropy =       4.0541
   XX=      27.3147  YX=       0.7815  ZX=       0.0000
   XY=       0.7815  YY=      26.4123  ZY=      -0.0000
   XZ=       0.0000  YZ=      -0.0000  ZZ=      21.4625
   Eigenvalues:      21.4625      25.9611      27.7659
     10  H    Isotropic =      25.0632   Anisotropy =       4.0541
   XX=      25.9611  YX=      -0.0000  ZX=       0.0000
   XY=       0.0000  YY=      27.7659  ZY=       0.0000
   XZ=      -0.0000  YZ=       0.0000  ZZ=      21.4625
   Eigenvalues:      21.4625      25.9611      27.7659
     11  H    Isotropic =      25.0632   Anisotropy =       4.0541
   XX=      27.3147  YX=      -0.7815  ZX=      -0.0000
   XY=      -0.7815  YY=      26.4123  ZY=      -0.0000
   XZ=      -0.0000  YZ=       0.0000  ZZ=      21.4625
   Eigenvalues:      21.4625      25.9611      27.7659
     12  H    Isotropic =      25.0632   Anisotropy =       4.0541
   XX=      27.3147  YX=       0.7815  ZX=       0.0000
   XY=       0.7815  YY=      26.4123  ZY=      -0.0000
   XZ=       0.0000  YZ=      -0.0000  ZZ=      21.4625
   Eigenvalues:      21.4625      25.9611      27.7659
     13  Bq   Isotropic =      11.5144   Anisotropy =       8.5680
   XX=       8.6585  YX=       0.0000  ZX=      -0.0000
   XY=       0.0000  YY=       8.6585  ZY=       0.0000
   XZ=      -0.0000  YZ=       0.0000  ZZ=      17.2264
   Eigenvalues:       8.6585       8.6585      17.2264
     14  Bq   Isotropic =      13.2594   Anisotropy =      19.0835
   XX=       6.8983  YX=       0.0000  ZX=      -0.0000
   XY=       0.0000  YY=       6.8983  ZY=       0.0000
   XZ=       0.0000  YZ=       0.0000  ZZ=      25.9817
   Eigenvalues:       6.8983       6.8983      25.9817
     15  Bq   Isotropic =      12.7974   Anisotropy =      28.9847
   XX=       3.1358  YX=       0.0000  ZX=      -0.0000
   XY=       0.0000  YY=       3.1358  ZY=       0.0000
   XZ=       0.0000  YZ=       0.0000  ZZ=      32.1205
   Eigenvalues:       3.1358       3.1358      32.1205
     16  Bq   Isotropic =      11.4336   Anisotropy =      29.1043
   XX=       1.7322  YX=       0.0000  ZX=      -0.0000
   XY=       0.0000  YY=       1.7322  ZY=       0.0000
   XZ=       0.0000  YZ=       0.0000  ZZ=      30.8364
   Eigenvalues:       1.7322       1.7322      30.8364
     17  Bq   Isotropic =       9.8028   Anisotropy =      27.6593
   XX=       0.5831  YX=       0.0000  ZX=      -0.0000
   XY=       0.0000  YY=       0.5831  ZY=       0.0000
   XZ=       0.0000  YZ=       0.0000  ZZ=      28.2424
   Eigenvalues:       0.5831       0.5831      28.2424
     18  Bq   Isotropic =       8.1702   Anisotropy =      25.3178
   XX=      -0.2691  YX=       0.0000  ZX=      -0.0000
   XY=       0.0000  YY=      -0.2691  ZY=       0.0000
   XZ=       0.0000  YZ=       0.0000  ZZ=      25.0487
   Eigenvalues:      -0.2691      -0.2691      25.0487
     19  Bq   Isotropic =       6.6971   Anisotropy =      22.5984
   XX=      -0.8357  YX=       0.0000  ZX=      -0.0000
   XY=       0.0000  YY=      -0.8357  ZY=       0.0000
   XZ=       0.0000  YZ=       0.0000  ZZ=      21.7627
   Eigenvalues:      -0.8357      -0.8357      21.7627
     20  Bq   Isotropic =       5.4515   Anisotropy =      19.8423
   XX=      -1.1626  YX=       0.0000  ZX=      -0.0000
   XY=       0.0000  YY=      -1.1626  ZY=       0.0000
   XZ=       0.0000  YZ=       0.0000  ZZ=      18.6797
   Eigenvalues:      -1.1626      -1.1626      18.6797
 End of Minotr F.D. properties file.

