 Entering Gaussian System, Link 0=/usr/local/g09/g09
 Input=/home/anuja/input/benz-sigma-center1.in
 Output=/home/anuja/output/benz-sigma-center1.log
 Initial command:
 /usr/local/g09-D.01/g09/l1.exe /gtmp/Gau-8766.inp -scrdir=/gtmp/
 Entering Link 1 = /usr/local/g09-D.01/g09/l1.exe PID=      8768.
  
 Copyright (c) 1988,1990,1992,1993,1995,1998,2003,2009,2013,
            Gaussian, Inc.  All Rights Reserved.
  
 This is part of the Gaussian(R) 09 program.  It is based on
 the Gaussian(R) 03 system (copyright 2003, Gaussian, Inc.),
 the Gaussian(R) 98 system (copyright 1998, Gaussian, Inc.),
 the Gaussian(R) 94 system (copyright 1995, Gaussian, Inc.),
 the Gaussian 92(TM) system (copyright 1992, Gaussian, Inc.),
 the Gaussian 90(TM) system (copyright 1990, Gaussian, Inc.),
 the Gaussian 88(TM) system (copyright 1988, Gaussian, Inc.),
 the Gaussian 86(TM) system (copyright 1986, Carnegie Mellon
 University), and the Gaussian 82(TM) system (copyright 1983,
 Carnegie Mellon University). Gaussian is a federally registered
 trademark of Gaussian, Inc.
  
 This software contains proprietary and confidential information,
 including trade secrets, belonging to Gaussian, Inc.
  
 This software is provided under written license and may be
 used, copied, transmitted, or stored only in accord with that
 written license.
  
 The following legend is applicable only to US Government
 contracts under FAR:
  
                    RESTRICTED RIGHTS LEGEND
  
 Use, reproduction and disclosure by the US Government is
 subject to restrictions as set forth in subparagraphs (a)
 and (c) of the Commercial Computer Software - Restricted
 Rights clause in FAR 52.227-19.
  
 Gaussian, Inc.
 340 Quinnipiac St., Bldg. 40, Wallingford CT 06492
  
  
 ---------------------------------------------------------------
 Warning -- This program may not be used in any manner that
 competes with the business of Gaussian, Inc. or will provide
 assistance to any competitor of Gaussian, Inc.  The licensee
 of this program is prohibited from giving any competitor of
 Gaussian, Inc. access to this program.  By using this program,
 the user acknowledges that Gaussian, Inc. is engaged in the
 business of creating and licensing software in the field of
 computational chemistry and represents and warrants to the
 licensee that it is not a competitor of Gaussian, Inc. and that
 it will not use this program in any manner prohibited above.
 ---------------------------------------------------------------
  

 Cite this work as:
 Gaussian 09, Revision D.01,
 M. J. Frisch, G. W. Trucks, H. B. Schlegel, G. E. Scuseria, 
 M. A. Robb, J. R. Cheeseman, G. Scalmani, V. Barone, B. Mennucci, 
 G. A. Petersson, H. Nakatsuji, M. Caricato, X. Li, H. P. Hratchian, 
 A. F. Izmaylov, J. Bloino, G. Zheng, J. L. Sonnenberg, M. Hada, 
 M. Ehara, K. Toyota, R. Fukuda, J. Hasegawa, M. Ishida, T. Nakajima, 
 Y. Honda, O. Kitao, H. Nakai, T. Vreven, J. A. Montgomery, Jr., 
 J. E. Peralta, F. Ogliaro, M. Bearpark, J. J. Heyd, E. Brothers, 
 K. N. Kudin, V. N. Staroverov, T. Keith, R. Kobayashi, J. Normand, 
 K. Raghavachari, A. Rendell, J. C. Burant, S. S. Iyengar, J. Tomasi, 
 M. Cossi, N. Rega, J. M. Millam, M. Klene, J. E. Knox, J. B. Cross, 
 V. Bakken, C. Adamo, J. Jaramillo, R. Gomperts, R. E. Stratmann, 
 O. Yazyev, A. J. Austin, R. Cammi, C. Pomelli, J. W. Ochterski, 
 R. L. Martin, K. Morokuma, V. G. Zakrzewski, G. A. Voth, 
 P. Salvador, J. J. Dannenberg, S. Dapprich, A. D. Daniels, 
 O. Farkas, J. B. Foresman, J. V. Ortiz, J. Cioslowski, 
 and D. J. Fox, Gaussian, Inc., Wallingford CT, 2013.
 
 ******************************************
 Gaussian 09:  EM64L-G09RevD.01 24-Apr-2013
                 5-May-2014 
 ******************************************
 %NPROC=6
 Will use up to    6 processors via shared memory.
 %MEM=6024MB
 ----------------------------------------------------
 # B3LYP/6-311+G* NMR=GIAO POP=FULL SCF(MAXCYCLE=512)
 ----------------------------------------------------
 1/38=1/1;
 2/12=2,17=6,18=5,40=1/2;
 3/5=4,6=6,7=11,11=2,16=1,25=1,30=1,74=-5/1,2,8,3;
 4//1;
 5/5=2,7=512,38=5/2;
 8/6=1,10=90,11=11/1;
 10/13=100,45=16/2;
 6/7=3,28=1/1;
 99/9=1/99;
 ---------------------------------------------------------
 ---------------------------------------------- # Center 1
 ---------------------------------------------------------
 Symbolic Z-matrix:
 Charge =  0 Multiplicity = 1
 6                    -1.20726   0.69701   0. 
 6                    -1.20726  -0.69701   0. 
 6                     0.       -1.39402   0. 
 6                     1.20726  -0.69701   0. 
 6                     1.20726   0.69701   0. 
 6                     0.        1.39402   0. 
 1                     0.        2.47959   0. 
 1                     2.14738   1.2398    0. 
 1                     2.14739  -1.23979   0. 
 1                     0.       -2.47959   0. 
 1                    -2.14738  -1.2398    0. 
 1                    -2.14739   1.23979   0. 
 1                    -1.28274   0.74059  -0.9962 
 1                     0.       -1.48118  -0.99619 
 1                     1.28274   0.74059  -0.9962 
 1                    -1.28274  -0.74059  -0.9962 
 1                     1.28274  -0.74059  -0.9962 
 1                     0.        1.48118  -0.9962 
 bq                    0.        0.        0. 
 bq                    0.        0.        0.1 
 bq                    0.        0.        0.2 
 bq                    0.        0.        0.3 
 bq                    0.        0.        0.4 
 bq                    0.        0.        0.5 
 bq                    0.        0.        0.6 
 bq                    0.        0.        0.7 
 bq                    0.        0.        0.8 
 bq                    0.        0.        0.9 
 bq                    0.        0.        1. 
 bq                    0.        0.        1.1 
 bq                    0.        0.        1.2 
 bq                    0.        0.        1.3 
 bq                    0.        0.        1.4 
 bq                    0.        0.        1.5 
 bq                    0.        0.        1.6 
 bq                    0.        0.        1.7 
 bq                    0.        0.        1.8 
 bq                    0.        0.        1.9 
 bq                    0.        0.        2. 
 bq                    0.        0.        2.1 
 bq                    0.        0.        2.2 
 bq                    0.        0.        2.3 
 bq                    0.        0.        2.4 
 bq                    0.        0.        2.5 
 bq                    0.        0.        2.6 
 bq                    0.        0.        2.7 
 bq                    0.        0.        2.8 
 bq                    0.        0.        2.9 
 bq                    0.        0.        3. 
 bq                    0.        0.        3.1 
 bq                    0.        0.        3.2 
 bq                    0.        0.        3.3 
 bq                    0.        0.        3.4 
 bq                    0.        0.        3.5 
 bq                    0.        0.        3.6 
 bq                    0.        0.        3.7 
 bq                    0.        0.        3.8 
 bq                    0.        0.        3.9 
 
 Symmetry turned off:
 Cannot cope with ghost atoms or with translation vectors.
 Stoichiometry    C6H12
 Framework group  C1[X(C6H12)]
 NUMDOF-- NAT=    18 NAtoms=    58
 Deg. of freedom     0
 Full point group                 C1      NOp   1
                          Input orientation:                          
 ---------------------------------------------------------------------
 Center     Atomic      Atomic             Coordinates (Angstroms)
 Number     Number       Type             X           Y           Z
 ---------------------------------------------------------------------
      1          6           0       -1.207260    0.697010    0.000000
      2          6           0       -1.207260   -0.697010    0.000000
      3          6           0        0.000000   -1.394020    0.000000
      4          6           0        1.207260   -0.697010    0.000000
      5          6           0        1.207260    0.697010    0.000000
      6          6           0        0.000000    1.394020    0.000000
      7          1           0        0.000000    2.479590    0.000000
      8          1           0        2.147380    1.239800    0.000000
      9          1           0        2.147390   -1.239790    0.000000
     10          1           0        0.000000   -2.479590    0.000000
     11          1           0       -2.147380   -1.239800    0.000000
     12          1           0       -2.147390    1.239790    0.000000
     13          1           0       -1.282740    0.740590   -0.996200
     14          1           0        0.000000   -1.481180   -0.996190
     15          1           0        1.282740    0.740590   -0.996200
     16          1           0       -1.282740   -0.740590   -0.996200
     17          1           0        1.282740   -0.740590   -0.996200
     18          1           0        0.000000    1.481180   -0.996200
     19          0           0        0.000000    0.000000    0.000000
     20          0           0        0.000000    0.000000    0.100000
     21          0           0        0.000000    0.000000    0.200000
     22          0           0        0.000000    0.000000    0.300000
     23          0           0        0.000000    0.000000    0.400000
     24          0           0        0.000000    0.000000    0.500000
     25          0           0        0.000000    0.000000    0.600000
     26          0           0        0.000000    0.000000    0.700000
     27          0           0        0.000000    0.000000    0.800000
     28          0           0        0.000000    0.000000    0.900000
     29          0           0        0.000000    0.000000    1.000000
     30          0           0        0.000000    0.000000    1.100000
     31          0           0        0.000000    0.000000    1.200000
     32          0           0        0.000000    0.000000    1.300000
     33          0           0        0.000000    0.000000    1.400000
     34          0           0        0.000000    0.000000    1.500000
     35          0           0        0.000000    0.000000    1.600000
     36          0           0        0.000000    0.000000    1.700000
     37          0           0        0.000000    0.000000    1.800000
     38          0           0        0.000000    0.000000    1.900000
     39          0           0        0.000000    0.000000    2.000000
     40          0           0        0.000000    0.000000    2.100000
     41          0           0        0.000000    0.000000    2.200000
     42          0           0        0.000000    0.000000    2.300000
     43          0           0        0.000000    0.000000    2.400000
     44          0           0        0.000000    0.000000    2.500000
     45          0           0        0.000000    0.000000    2.600000
     46          0           0        0.000000    0.000000    2.700000
     47          0           0        0.000000    0.000000    2.800000
     48          0           0        0.000000    0.000000    2.900000
     49          0           0        0.000000    0.000000    3.000000
     50          0           0        0.000000    0.000000    3.100000
     51          0           0        0.000000    0.000000    3.200000
     52          0           0        0.000000    0.000000    3.300000
     53          0           0        0.000000    0.000000    3.400000
     54          0           0        0.000000    0.000000    3.500000
     55          0           0        0.000000    0.000000    3.600000
     56          0           0        0.000000    0.000000    3.700000
     57          0           0        0.000000    0.000000    3.800000
     58          0           0        0.000000    0.000000    3.900000
 ---------------------------------------------------------------------
 Rotational constants (GHZ):      5.0161358      5.0161192      2.6548233
 Standard basis: 6-311+G(d) (5D, 7F)
 Warning:  center  19 has no basis functions!
 Warning:  center  20 has no basis functions!
 Warning:  center  21 has no basis functions!
 Warning:  center  22 has no basis functions!
 Warning:  center  23 has no basis functions!
 Warning:  center  24 has no basis functions!
 Warning:  center  25 has no basis functions!
 Warning:  center  26 has no basis functions!
 Warning:  center  27 has no basis functions!
 Warning:  center  28 has no basis functions!
 Warning:  center  29 has no basis functions!
 Warning:  center  30 has no basis functions!
 Warning:  center  31 has no basis functions!
 Warning:  center  32 has no basis functions!
 Warning:  center  33 has no basis functions!
 Warning:  center  34 has no basis functions!
 Warning:  center  35 has no basis functions!
 Warning:  center  36 has no basis functions!
 Warning:  center  37 has no basis functions!
 Warning:  center  38 has no basis functions!
 Warning:  center  39 has no basis functions!
 Warning:  center  40 has no basis functions!
 Warning:  center  41 has no basis functions!
 Warning:  center  42 has no basis functions!
 Warning:  center  43 has no basis functions!
 Warning:  center  44 has no basis functions!
 Warning:  center  45 has no basis functions!
 Warning:  center  46 has no basis functions!
 Warning:  center  47 has no basis functions!
 Warning:  center  48 has no basis functions!
 Warning:  center  49 has no basis functions!
 Warning:  center  50 has no basis functions!
 Warning:  center  51 has no basis functions!
 Warning:  center  52 has no basis functions!
 Warning:  center  53 has no basis functions!
 Warning:  center  54 has no basis functions!
 Warning:  center  55 has no basis functions!
 Warning:  center  56 has no basis functions!
 Warning:  center  57 has no basis functions!
 Warning:  center  58 has no basis functions!
   168 basis functions,   276 primitive gaussians,   174 cartesian basis functions
    24 alpha electrons       24 beta electrons
       nuclear repulsion energy       276.2031507894 Hartrees.
 NAtoms=   58 NActive=   58 NUniq=   58 SFac= 1.00D+00 NAtFMM=   60 NAOKFM=F Big=F
 Integral buffers will be    131072 words long.
 Raffenetti 2 integral format.
 Two-electron integral symmetry is turned off.
 One-electron integrals computed using PRISM.
 NBasis=   168 RedAO= T EigKep=  2.36D-06  NBF=   168
 NBsUse=   168 1.00D-06 EigRej= -1.00D+00 NBFU=   168
 ExpMin= 4.38D-02 ExpMax= 4.56D+03 ExpMxC= 6.82D+02 IAcc=2 IRadAn=         4 AccDes= 0.00D+00
 Harris functional with IExCor=  402 and IRadAn=       4 diagonalized for initial guess.
 HarFok:  IExCor=  402 AccDes= 0.00D+00 IRadAn=         4 IDoV= 1 UseB2=F ITyADJ=14
 ICtDFT=  3500011 ScaDFX=  1.000000  1.000000  1.000000  1.000000
 FoFCou: FMM=F IPFlag=           0 FMFlag=      100000 FMFlg1=           0
         NFxFlg=           0 DoJE=T BraDBF=F KetDBF=T FulRan=T
         wScrn=  0.000000 ICntrl=     500 IOpCl=  0 I1Cent=   200000004 NGrid=           0
         NMat0=    1 NMatS0=      1 NMatT0=    0 NMatD0=    1 NMtDS0=    0 NMtDT0=    0
 Symmetry not used in FoFCou.
 Keep R1 ints in memory in canonical form, NReq=103809168.
 Requested convergence on RMS density matrix=1.00D-08 within 512 cycles.
 Requested convergence on MAX density matrix=1.00D-06.
 Requested convergence on             energy=1.00D-06.
 No special actions if energy rises.
 DSYEVD-2 returned Info=         211 IAlg= 4 N=   168 NDim=   168 NE2=     4097721 trying  DSYEV.
 SCF Done:  E(RB3LYP) =  -235.383205725     A.U. after   12 cycles
            NFock= 12  Conv=0.58D-08     -V/T= 1.9895
 DoSCS=F DFT=T ScalE2(SS,OS)=  1.000000  1.000000
 Range of M.O.s used for correlation:     1   168
 NBasis=   168 NAE=    24 NBE=    24 NFC=     0 NFV=     0
 NROrb=    168 NOA=    24 NOB=    24 NVA=   144 NVB=   144

 **** Warning!!: The largest alpha MO coefficient is  0.13545757D+03

          Differentiating once with respect to magnetic field using GIAOs.
          Electric field/nuclear overlap derivatives assumed to be zero.
 Keep R3 ints in memory in canonical form, NReq=103456739.
 FoFJK:  IHMeth= 1 ICntrl=    6127 DoSepK=F KAlg= 0 I1Cent=   0 FoldK=F
 IRaf=         1 NMat=   1 IRICut=       1 DoRegI=T DoRafI=F ISym2E= 0.
          There are     3 degrees of freedom in the 1st order CPHF.  IDoFFX=0 NUNeed=     3.
      3 vectors produced by pass  0 Test12= 1.15D-13 3.33D-08 XBig12= 2.03D+01 2.77D+00.
 AX will form     3 AO Fock derivatives at one time.
      3 vectors produced by pass  1 Test12= 1.15D-13 3.33D-08 XBig12= 2.10D-02 5.83D-02.
      3 vectors produced by pass  2 Test12= 1.15D-13 3.33D-08 XBig12= 2.20D-05 1.56D-03.
      3 vectors produced by pass  3 Test12= 1.15D-13 3.33D-08 XBig12= 3.23D-08 7.77D-05.
      3 vectors produced by pass  4 Test12= 1.15D-13 3.33D-08 XBig12= 1.69D-10 8.90D-06.
      3 vectors produced by pass  5 Test12= 1.15D-13 3.33D-08 XBig12= 2.46D-12 9.54D-07.
      1 vectors produced by pass  6 Test12= 1.15D-13 3.33D-08 XBig12= 1.36D-14 4.71D-08.
 InvSVY:  IOpt=1 It=  1 EMax= 4.44D-16
 Solved reduced A of dimension    19 with     3 vectors.
 Calculating GIAO nuclear magnetic shielding tensors.
 SCF GIAO Magnetic shielding tensor (ppm):
      1  C    Isotropic =   207.4252   Anisotropy =    33.5688
   XX=   226.5016   YX=     1.8841   ZX=     2.0462
   XY=     2.0079   YY=   228.6578   ZY=    -1.2401
   XZ=     7.4730   YZ=    -4.3590   ZZ=   167.1162
   Eigenvalues:   166.5973   225.8740   229.8044
      2  C    Isotropic =   207.4252   Anisotropy =    33.5698
   XX=   226.5016   YX=    -1.8853   ZX=     2.0466
   XY=    -2.0087   YY=   228.6576   ZY=     1.2404
   XZ=     7.4726   YZ=     4.3594   ZZ=   167.1164
   Eigenvalues:   166.5975   225.8731   229.8051
      3  C    Isotropic =   207.4088   Anisotropy =    33.4551
   XX=   229.7122   YX=    -0.0001   ZX=     0.0001
   XY=     0.0000   YY=   225.4025   ZY=     2.3724
   XZ=    -0.0002   YZ=     8.9948   ZZ=   167.1118
   Eigenvalues:   166.5628   225.9515   229.7122
      4  C    Isotropic =   207.4251   Anisotropy =    33.5695
   XX=   226.5012   YX=     1.8845   ZX=    -2.0463
   XY=     2.0085   YY=   228.6579   ZY=     1.2401
   XZ=    -7.4731   YZ=     4.3587   ZZ=   167.1162
   Eigenvalues:   166.5973   225.8733   229.8048
      5  C    Isotropic =   207.4253   Anisotropy =    33.5691
   XX=   226.5020   YX=    -1.8849   ZX=    -2.0465
   XY=    -2.0081   YY=   228.6575   ZY=    -1.2403
   XZ=    -7.4726   YZ=    -4.3596   ZZ=   167.1164
   Eigenvalues:   166.5974   225.8738   229.8047
      6  C    Isotropic =   207.4079   Anisotropy =    33.4556
   XX=   229.7116   YX=    -0.0001   ZX=    -0.0001
   XY=     0.0000   YY=   225.4003   ZY=    -2.3728
   XZ=     0.0002   YZ=    -8.9951   ZZ=   167.1118
   Eigenvalues:   166.5627   225.9493   229.7116
      7  H    Isotropic =    31.3536   Anisotropy =    10.3637
   XX=    31.1270   YX=     0.0000   ZX=     0.0000
   XY=     0.0000   YY=    38.2607   ZY=    -0.3160
   XZ=     0.0000   YZ=     0.6506   ZZ=    24.6733
   Eigenvalues:    24.6712    31.1270    38.2628
      8  H    Isotropic =    31.3625   Anisotropy =    10.3727
   XX=    36.4890   YX=     3.0900   ZX=    -0.2767
   XY=     3.0962   YY=    32.9177   ZY=    -0.1750
   XZ=     0.6299   YZ=     0.3330   ZZ=    24.6807
   Eigenvalues:    24.6779    31.1319    38.2776
      9  H    Isotropic =    31.3624   Anisotropy =    10.3727
   XX=    36.4890   YX=    -3.0899   ZX=    -0.2767
   XY=    -3.0963   YY=    32.9174   ZY=     0.1750
   XZ=     0.6299   YZ=    -0.3329   ZZ=    24.6807
   Eigenvalues:    24.6779    31.1317    38.2775
     10  H    Isotropic =    31.3537   Anisotropy =    10.3639
   XX=    31.1270   YX=     0.0000   ZX=     0.0000
   XY=     0.0000   YY=    38.2609   ZY=     0.3160
   XZ=     0.0000   YZ=    -0.6507   ZZ=    24.6732
   Eigenvalues:    24.6712    31.1270    38.2630
     11  H    Isotropic =    31.3624   Anisotropy =    10.3727
   XX=    36.4890   YX=     3.0900   ZX=     0.2767
   XY=     3.0962   YY=    32.9176   ZY=     0.1750
   XZ=    -0.6299   YZ=    -0.3329   ZZ=    24.6807
   Eigenvalues:    24.6779    31.1318    38.2776
     12  H    Isotropic =    31.3624   Anisotropy =    10.3727
   XX=    36.4890   YX=    -3.0899   ZX=     0.2767
   XY=    -3.0962   YY=    32.9175   ZY=    -0.1750
   XZ=    -0.6299   YZ=     0.3329   ZZ=    24.6807
   Eigenvalues:    24.6779    31.1318    38.2775
     13  H    Isotropic =    26.3542   Anisotropy =    11.0128
   XX=    19.6163   YX=     6.1629   ZX=     5.2387
   XY=     6.1573   YY=    26.7372   ZY=    -3.0207
   XZ=     1.9785   YZ=    -1.1664   ZZ=    32.7091
   Eigenvalues:    15.0747    30.2918    33.6960
     14  H    Isotropic =    26.3579   Anisotropy =    11.0233
   XX=    30.2614   YX=     0.0000   ZX=     0.0000
   XY=     0.0000   YY=    16.0908   ZY=     6.0343
   XZ=     0.0000   YZ=     2.2986   ZZ=    32.7213
   Eigenvalues:    15.1054    30.2614    33.7067
     15  H    Isotropic =    26.3542   Anisotropy =    11.0128
   XX=    19.6163   YX=    -6.1629   ZX=    -5.2387
   XY=    -6.1573   YY=    26.7373   ZY=    -3.0207
   XZ=    -1.9785   YZ=    -1.1664   ZZ=    32.7091
   Eigenvalues:    15.0747    30.2918    33.6961
     16  H    Isotropic =    26.3543   Anisotropy =    11.0127
   XX=    19.6163   YX=    -6.1628   ZX=     5.2387
   XY=    -6.1573   YY=    26.7374   ZY=     3.0207
   XZ=     1.9786   YZ=     1.1664   ZZ=    32.7091
   Eigenvalues:    15.0748    30.2919    33.6961
     17  H    Isotropic =    26.3543   Anisotropy =    11.0127
   XX=    19.6164   YX=     6.1629   ZX=    -5.2387
   XY=     6.1573   YY=    26.7374   ZY=     3.0206
   XZ=    -1.9785   YZ=     1.1664   ZZ=    32.7091
   Eigenvalues:    15.0748    30.2919    33.6961
     18  H    Isotropic =    26.3575   Anisotropy =    11.0235
   XX=    30.2611   YX=     0.0000   ZX=     0.0000
   XY=     0.0000   YY=    16.0904   ZY=    -6.0343
   XZ=     0.0000   YZ=    -2.2987   ZZ=    32.7210
   Eigenvalues:    15.1049    30.2611    33.7065
     19  Bq   Isotropic =    -2.4125   Anisotropy =    15.5527
   XX=     7.9560   YX=     0.0000   ZX=     0.0000
   XY=     0.0000   YY=     7.9317   ZY=     0.0000
   XZ=     0.0000   YZ=     0.0000   ZZ=   -23.1252
   Eigenvalues:   -23.1252     7.9317     7.9560
     20  Bq   Isotropic =    -2.3038   Anisotropy =    15.5836
   XX=     8.0853   YX=     0.0000   ZX=     0.0000
   XY=     0.0000   YY=     8.0605   ZY=     0.0001
   XZ=     0.0000   YZ=     0.0000   ZZ=   -23.0570
   Eigenvalues:   -23.0570     8.0605     8.0853
     21  Bq   Isotropic =    -2.3443   Anisotropy =    14.8026
   XX=     7.5241   YX=     0.0000   ZX=     0.0000
   XY=     0.0000   YY=     7.4998   ZY=     0.0001
   XZ=     0.0000   YZ=     0.0000   ZZ=   -22.0568
   Eigenvalues:   -22.0568     7.4998     7.5241
     22  Bq   Isotropic =    -2.4661   Anisotropy =    13.3445
   XX=     6.4302   YX=     0.0000   ZX=     0.0000
   XY=     0.0000   YY=     6.4070   ZY=     0.0001
   XZ=     0.0000   YZ=     0.0000   ZZ=   -20.2356
   Eigenvalues:   -20.2356     6.4070     6.4302
     23  Bq   Isotropic =    -2.6027   Anisotropy =    11.4027
   XX=     4.9991   YX=     0.0000   ZX=     0.0000
   XY=     0.0000   YY=     4.9775   ZY=     0.0001
   XZ=     0.0000   YZ=     0.0000   ZZ=   -17.7847
   Eigenvalues:   -17.7847     4.9775     4.9991
     24  Bq   Isotropic =    -2.7026   Anisotropy =     9.1917
   XX=     3.4252   YX=     0.0000   ZX=     0.0000
   XY=     0.0000   YY=     3.4052   ZY=     0.0001
   XZ=     0.0000   YZ=     0.0000   ZZ=   -14.9381
   Eigenvalues:   -14.9381     3.4052     3.4252
     25  Bq   Isotropic =    -2.7357   Anisotropy =     6.9116
   XX=     1.8721   YX=     0.0000   ZX=     0.0000
   XY=     0.0000   YY=     1.8538   ZY=     0.0001
   XZ=     0.0000   YZ=     0.0000   ZZ=   -11.9328
   Eigenvalues:   -11.9328     1.8538     1.8721
     26  Bq   Isotropic =    -2.6930   Anisotropy =     4.7248
   XX=     0.4569   YX=     0.0000   ZX=     0.0000
   XY=     0.0000   YY=     0.4401   ZY=     0.0001
   XZ=     0.0000   YZ=     0.0000   ZZ=    -8.9759
   Eigenvalues:    -8.9759     0.4401     0.4569
     27  Bq   Isotropic =    -2.5816   Anisotropy =     2.7445
   XX=    -0.7519   YX=     0.0000   ZX=     0.0000
   XY=     0.0000   YY=    -0.7673   ZY=     0.0001
   XZ=     0.0000   YZ=     0.0000   ZZ=    -6.2255
   Eigenvalues:    -6.2255    -0.7673    -0.7519
     28  Bq   Isotropic =    -2.4179   Anisotropy =     1.0354
   XX=    -1.7276   YX=     0.0000   ZX=     0.0000
   XY=     0.0000   YY=    -1.7418   ZY=     0.0001
   XZ=     0.0000   YZ=     0.0000   ZZ=    -3.7843
   Eigenvalues:    -3.7843    -1.7418    -1.7276
     29  Bq   Isotropic =    -2.2214   Anisotropy =     0.7766
   XX=    -2.4737   YX=     0.0000   ZX=     0.0000
   XY=     0.0000   YY=    -2.4868   ZY=     0.0001
   XZ=     0.0000   YZ=     0.0000   ZZ=    -1.7037
   Eigenvalues:    -2.4868    -2.4737    -1.7037
     30  Bq   Isotropic =    -2.0101   Anisotropy =     3.0243
   XX=    -3.0121   YX=     0.0000   ZX=     0.0000
   XY=     0.0000   YY=    -3.0243   ZY=     0.0001
   XZ=     0.0000   YZ=     0.0000   ZZ=     0.0061
   Eigenvalues:    -3.0243    -3.0121     0.0061
     31  Bq   Isotropic =    -1.7983   Anisotropy =     4.7428
   XX=    -3.3734   YX=     0.0000   ZX=     0.0000
   XY=     0.0000   YY=    -3.3851   ZY=     0.0001
   XZ=     0.0000   YZ=     0.0000   ZZ=     1.3636
   Eigenvalues:    -3.3851    -3.3734     1.3636
     32  Bq   Isotropic =    -1.5959   Anisotropy =     6.0009
   XX=    -3.5906   YX=     0.0000   ZX=     0.0000
   XY=     0.0000   YY=    -3.6018   ZY=     0.0001
   XZ=     0.0000   YZ=     0.0000   ZZ=     2.4046
   Eigenvalues:    -3.6018    -3.5906     2.4046
     33  Bq   Isotropic =    -1.4089   Anisotropy =     6.8732
   XX=    -3.6945   YX=     0.0000   ZX=     0.0000
   XY=     0.0000   YY=    -3.7054   ZY=     0.0001
   XZ=     0.0000   YZ=     0.0000   ZZ=     3.1732
   Eigenvalues:    -3.7054    -3.6945     3.1732
     34  Bq   Isotropic =    -1.2401   Anisotropy =     7.4325
   XX=    -3.7122   YX=     0.0000   ZX=     0.0000
   XY=     0.0000   YY=    -3.7229   ZY=     0.0001
   XZ=     0.0000   YZ=     0.0000   ZZ=     3.7150
   Eigenvalues:    -3.7229    -3.7122     3.7150
     35  Bq   Isotropic =    -1.0901   Anisotropy =     7.7444
   XX=    -3.6663   YX=     0.0000   ZX=     0.0000
   XY=     0.0000   YY=    -3.6768   ZY=     0.0000
   XZ=     0.0000   YZ=     0.0000   ZZ=     4.0728
   Eigenvalues:    -3.6768    -3.6663     4.0728
     36  Bq   Isotropic =    -0.9583   Anisotropy =     7.8653
   XX=    -3.5748   YX=     0.0000   ZX=     0.0000
   XY=     0.0000   YY=    -3.5853   ZY=     0.0000
   XZ=     0.0000   YZ=     0.0000   ZZ=     4.2852
   Eigenvalues:    -3.5853    -3.5748     4.2852
     37  Bq   Isotropic =    -0.8434   Anisotropy =     7.8424
   XX=    -3.4524   YX=     0.0000   ZX=     0.0000
   XY=     0.0000   YY=    -3.4628   ZY=     0.0000
   XZ=     0.0000   YZ=     0.0000   ZZ=     4.3848
   Eigenvalues:    -3.4628    -3.4524     4.3848
     38  Bq   Isotropic =    -0.7438   Anisotropy =     7.7141
   XX=    -3.3100   YX=     0.0000   ZX=     0.0000
   XY=     0.0000   YY=    -3.3203   ZY=     0.0000
   XZ=     0.0000   YZ=     0.0000   ZZ=     4.3989
   Eigenvalues:    -3.3203    -3.3100     4.3989
     39  Bq   Isotropic =    -0.6577   Anisotropy =     7.5107
   XX=    -3.1561   YX=     0.0000   ZX=     0.0000
   XY=     0.0000   YY=    -3.1663   ZY=     0.0000
   XZ=     0.0000   YZ=     0.0000   ZZ=     4.3495
   Eigenvalues:    -3.1663    -3.1561     4.3495
     40  Bq   Isotropic =    -0.5834   Anisotropy =     7.2562
   XX=    -2.9971   YX=     0.0000   ZX=     0.0000
   XY=     0.0000   YY=    -3.0072   ZY=     0.0000
   XZ=     0.0000   YZ=     0.0000   ZZ=     4.2541
   Eigenvalues:    -3.0072    -2.9971     4.2541
     41  Bq   Isotropic =    -0.5194   Anisotropy =     6.9690
   XX=    -2.8374   YX=     0.0000   ZX=     0.0000
   XY=     0.0000   YY=    -2.8474   ZY=     0.0000
   XZ=     0.0000   YZ=     0.0000   ZZ=     4.1266
   Eigenvalues:    -2.8474    -2.8374     4.1266
     42  Bq   Isotropic =    -0.4644   Anisotropy =     6.6628
   XX=    -2.6804   YX=     0.0000   ZX=     0.0000
   XY=     0.0000   YY=    -2.6902   ZY=     0.0000
   XZ=     0.0000   YZ=     0.0000   ZZ=     3.9775
   Eigenvalues:    -2.6902    -2.6804     3.9775
     43  Bq   Isotropic =    -0.4170   Anisotropy =     6.3481
   XX=    -2.5283   YX=     0.0000   ZX=     0.0000
   XY=     0.0000   YY=    -2.5378   ZY=     0.0000
   XZ=     0.0000   YZ=     0.0000   ZZ=     3.8150
   Eigenvalues:    -2.5378    -2.5283     3.8150
     44  Bq   Isotropic =    -0.3763   Anisotropy =     6.0324
   XX=    -2.3825   YX=     0.0000   ZX=     0.0000
   XY=     0.0000   YY=    -2.3917   ZY=     0.0000
   XZ=     0.0000   YZ=     0.0000   ZZ=     3.6453
   Eigenvalues:    -2.3917    -2.3825     3.6453
     45  Bq   Isotropic =    -0.3411   Anisotropy =     5.7212
   XX=    -2.2437   YX=     0.0000   ZX=     0.0000
   XY=     0.0000   YY=    -2.2527   ZY=     0.0000
   XZ=     0.0000   YZ=     0.0000   ZZ=     3.4730
   Eigenvalues:    -2.2527    -2.2437     3.4730
     46  Bq   Isotropic =    -0.3107   Anisotropy =     5.4181
   XX=    -2.1124   YX=     0.0000   ZX=     0.0000
   XY=     0.0000   YY=    -2.1211   ZY=     0.0000
   XZ=     0.0000   YZ=     0.0000   ZZ=     3.3014
   Eigenvalues:    -2.1211    -2.1124     3.3014
     47  Bq   Isotropic =    -0.2844   Anisotropy =     5.1258
   XX=    -1.9888   YX=     0.0000   ZX=     0.0000
   XY=     0.0000   YY=    -1.9971   ZY=     0.0000
   XZ=     0.0000   YZ=     0.0000   ZZ=     3.1328
   Eigenvalues:    -1.9971    -1.9888     3.1328
     48  Bq   Isotropic =    -0.2614   Anisotropy =     4.8458
   XX=    -1.8726   YX=     0.0000   ZX=     0.0000
   XY=     0.0000   YY=    -1.8807   ZY=     0.0000
   XZ=     0.0000   YZ=     0.0000   ZZ=     2.9691
   Eigenvalues:    -1.8807    -1.8726     2.9691
     49  Bq   Isotropic =    -0.2412   Anisotropy =     4.5789
   XX=    -1.7637   YX=     0.0000   ZX=     0.0000
   XY=     0.0000   YY=    -1.7714   ZY=     0.0000
   XZ=     0.0000   YZ=     0.0000   ZZ=     2.8114
   Eigenvalues:    -1.7714    -1.7637     2.8114
     50  Bq   Isotropic =    -0.2235   Anisotropy =     4.3257
   XX=    -1.6617   YX=     0.0000   ZX=     0.0000
   XY=     0.0000   YY=    -1.6691   ZY=     0.0000
   XZ=     0.0000   YZ=     0.0000   ZZ=     2.6603
   Eigenvalues:    -1.6691    -1.6617     2.6603
     51  Bq   Isotropic =    -0.2078   Anisotropy =     4.0861
   XX=    -1.5663   YX=     0.0000   ZX=     0.0000
   XY=     0.0000   YY=    -1.5734   ZY=     0.0000
   XZ=     0.0000   YZ=     0.0000   ZZ=     2.5163
   Eigenvalues:    -1.5734    -1.5663     2.5163
     52  Bq   Isotropic =    -0.1938   Anisotropy =     3.8600
   XX=    -1.4771   YX=     0.0000   ZX=     0.0000
   XY=     0.0000   YY=    -1.4838   ZY=     0.0000
   XZ=     0.0000   YZ=     0.0000   ZZ=     2.3795
   Eigenvalues:    -1.4838    -1.4771     2.3795
     53  Bq   Isotropic =    -0.1812   Anisotropy =     3.6470
   XX=    -1.3937   YX=     0.0000   ZX=     0.0000
   XY=     0.0000   YY=    -1.4001   ZY=     0.0000
   XZ=     0.0000   YZ=     0.0000   ZZ=     2.2501
   Eigenvalues:    -1.4001    -1.3937     2.2501
     54  Bq   Isotropic =    -0.1699   Anisotropy =     3.4465
   XX=    -1.3157   YX=     0.0000   ZX=     0.0000
   XY=     0.0000   YY=    -1.3218   ZY=     0.0000
   XZ=     0.0000   YZ=     0.0000   ZZ=     2.1278
   Eigenvalues:    -1.3218    -1.3157     2.1278
     55  Bq   Isotropic =    -0.1597   Anisotropy =     3.2581
   XX=    -1.2428   YX=     0.0000   ZX=     0.0000
   XY=     0.0000   YY=    -1.2486   ZY=     0.0000
   XZ=     0.0000   YZ=     0.0000   ZZ=     2.0124
   Eigenvalues:    -1.2486    -1.2428     2.0124
     56  Bq   Isotropic =    -0.1503   Anisotropy =     3.0812
   XX=    -1.1746   YX=     0.0000   ZX=     0.0000
   XY=     0.0000   YY=    -1.1801   ZY=     0.0000
   XZ=     0.0000   YZ=     0.0000   ZZ=     1.9038
   Eigenvalues:    -1.1801    -1.1746     1.9038
     57  Bq   Isotropic =    -0.1418   Anisotropy =     2.9151
   XX=    -1.1109   YX=     0.0000   ZX=     0.0000
   XY=     0.0000   YY=    -1.1161   ZY=     0.0000
   XZ=     0.0000   YZ=     0.0000   ZZ=     1.8017
   Eigenvalues:    -1.1161    -1.1109     1.8017
     58  Bq   Isotropic =    -0.1339   Anisotropy =     2.7593
   XX=    -1.0512   YX=     0.0000   ZX=     0.0000
   XY=     0.0000   YY=    -1.0562   ZY=     0.0000
   XZ=     0.0000   YZ=     0.0000   ZZ=     1.7056
   Eigenvalues:    -1.0562    -1.0512     1.7056
 End of Minotr F.D. properties file   721 does not exist.
 End of Minotr F.D. properties file   722 does not exist.
 End of Minotr F.D. properties file   788 does not exist.

 **********************************************************************

            Population analysis using the SCF density.

 **********************************************************************

 Alpha  occ. eigenvalues --  -10.13117 -10.13098 -10.13097 -10.13045 -10.13045
 Alpha  occ. eigenvalues --  -10.13019  -0.92706  -0.82051  -0.82051  -0.65578
 Alpha  occ. eigenvalues --   -0.65578  -0.55235  -0.50481  -0.50410  -0.44760
 Alpha  occ. eigenvalues --   -0.42968  -0.42967  -0.42241  -0.42241  -0.34332
 Alpha  occ. eigenvalues --   -0.34332  -0.26397  -0.26397  -0.15369
 Alpha virt. eigenvalues --   -0.02990   0.01626   0.01860   0.01861   0.04399
 Alpha virt. eigenvalues --    0.04400   0.05102   0.05970   0.05972   0.07905
 Alpha virt. eigenvalues --    0.10173   0.10414   0.10422   0.11250   0.11251
 Alpha virt. eigenvalues --    0.14388   0.14392   0.15689   0.15814   0.19217
 Alpha virt. eigenvalues --    0.19291   0.19302   0.19699   0.19699   0.20736
 Alpha virt. eigenvalues --    0.20736   0.21017   0.21018   0.22448   0.23090
 Alpha virt. eigenvalues --    0.23105   0.26641   0.26737   0.30766   0.30768
 Alpha virt. eigenvalues --    0.32039   0.32040   0.33661   0.33666   0.36396
 Alpha virt. eigenvalues --    0.41496   0.42073   0.42075   0.43917   0.45134
 Alpha virt. eigenvalues --    0.46442   0.46443   0.47041   0.55804   0.62532
 Alpha virt. eigenvalues --    0.65968   0.65969   0.66922   0.66924   0.67502
 Alpha virt. eigenvalues --    0.70302   0.70303   0.71051   0.72246   0.72246
 Alpha virt. eigenvalues --    0.75722   0.75725   0.79961   0.80089   0.81739
 Alpha virt. eigenvalues --    0.81740   0.84007   0.84008   0.88569   0.89828
 Alpha virt. eigenvalues --    0.90518   0.90521   0.97382   1.01481   1.03447
 Alpha virt. eigenvalues --    1.10611   1.10612   1.13478   1.13479   1.21466
 Alpha virt. eigenvalues --    1.21475   1.23241   1.23242   1.35923   1.41083
 Alpha virt. eigenvalues --    1.49776   1.50118   1.50120   1.56526   1.66567
 Alpha virt. eigenvalues --    1.66568   1.72706   1.72708   1.85393   1.85394
 Alpha virt. eigenvalues --    1.89935   1.89936   1.90734   1.94569   1.94569
 Alpha virt. eigenvalues --    2.02624   2.14638   2.14638   2.27324   2.27324
 Alpha virt. eigenvalues --    2.28894   2.44879   2.44902   2.44904   2.47741
 Alpha virt. eigenvalues --    2.47797   2.57897   2.66331   2.66332   2.74602
 Alpha virt. eigenvalues --    2.74602   2.86386   2.89621   2.89625   2.98890
 Alpha virt. eigenvalues --    3.09787   3.11871   3.11871   3.26317   3.30629
 Alpha virt. eigenvalues --    3.30629   3.32973   3.32974   3.57574   3.58327
 Alpha virt. eigenvalues --    3.58327   3.74295   3.74295   3.79972   4.02906
 Alpha virt. eigenvalues --    4.02907   4.15210   4.74825  23.35646  24.01838
 Alpha virt. eigenvalues --   24.01838  24.12473  24.12474  24.22576
     Molecular Orbital Coefficients:
                           1         2         3         4         5
                           O         O         O         O         O
     Eigenvalues --   -10.13117 -10.13098 -10.13097 -10.13045 -10.13045
   1 1   C  1S          0.23000  -0.30322  -0.11597   0.30364  -0.11591
   2        2S          0.18968  -0.24954  -0.09544   0.24981  -0.09536
   3        2PX         0.00020   0.00019  -0.00040  -0.00012   0.00034
   4        2PY        -0.00012   0.00025  -0.00072   0.00029   0.00039
   5        2PZ        -0.00010   0.00014   0.00006  -0.00019   0.00007
   6        3S          0.00722  -0.01253  -0.00480   0.01215  -0.00464
   7        3PX        -0.00031  -0.00238   0.00126   0.00152  -0.00151
   8        3PY         0.00018  -0.00031   0.00365  -0.00159  -0.00101
   9        3PZ        -0.00024   0.00025   0.00010  -0.00014   0.00005
  10        4S         -0.00539   0.01497   0.00575  -0.02219   0.00850
  11        4PX         0.00068   0.00296  -0.00198  -0.00431   0.00334
  12        4PY        -0.00038   0.00070  -0.00514   0.00378   0.00146
  13        4PZ         0.00085  -0.00330  -0.00127   0.00415  -0.00159
  14        5S         -0.00095  -0.00230  -0.00085  -0.02785   0.01069
  15        5PX         0.00055  -0.00024   0.00136  -0.00466   0.00248
  16        5PY        -0.00032  -0.00098   0.00212   0.00322  -0.00004
  17        5PZ         0.00027  -0.00036  -0.00014   0.00144  -0.00055
  18        6D 0        0.00013   0.00034   0.00013  -0.00094   0.00036
  19        6D+1       -0.00001  -0.00004   0.00002   0.00005  -0.00008
  20        6D-1        0.00000   0.00000   0.00005  -0.00007  -0.00007
  21        6D+2        0.00015  -0.00048   0.00188  -0.00086  -0.00068
  22        6D-2       -0.00027  -0.00076   0.00090   0.00072  -0.00086
  23 2   C  1S          0.22950  -0.25228   0.20515  -0.25205  -0.20450
  24        2S          0.18927  -0.20763   0.16884  -0.20737  -0.16824
  25        2PX         0.00020   0.00031   0.00032   0.00001   0.00036
  26        2PY         0.00012  -0.00046  -0.00061   0.00040  -0.00028
  27        2PZ        -0.00010   0.00012  -0.00010   0.00015   0.00012
  28        3S          0.00720  -0.01043   0.00847  -0.01008  -0.00818
  29        3PX        -0.00031  -0.00265  -0.00046  -0.00096  -0.00191
  30        3PY        -0.00019   0.00142   0.00337  -0.00183   0.00047
  31        3PZ        -0.00024   0.00021  -0.00017   0.00012   0.00009
  32        4S         -0.00538   0.01244  -0.01014   0.01842   0.01492
  33        4PX         0.00066   0.00342   0.00096   0.00305   0.00449
  34        4PY         0.00040  -0.00226  -0.00467   0.00406  -0.00023
  35        4PZ         0.00084  -0.00275   0.00223  -0.00344  -0.00279
  36        5S         -0.00099  -0.00195   0.00150   0.02311   0.01871
  37        5PX         0.00055  -0.00065  -0.00122   0.00365   0.00378
  38        5PY         0.00032   0.00159   0.00172   0.00304   0.00104
  39        5PZ         0.00027  -0.00030   0.00024  -0.00120  -0.00097
  40        6D 0        0.00014   0.00029  -0.00023   0.00078   0.00063
  41        6D+1       -0.00001  -0.00004   0.00000  -0.00003  -0.00009
  42        6D-1        0.00000   0.00002   0.00005  -0.00009   0.00004
  43        6D+2        0.00016  -0.00104  -0.00164   0.00103  -0.00038
  44        6D-2        0.00027   0.00100   0.00062   0.00041   0.00104
  45 3   C  1S          0.22880   0.05082   0.32070  -0.05174   0.32096
  46        2S          0.18869   0.04183   0.26393  -0.04257   0.26406
  47        2PX         0.00000   0.00087  -0.00014   0.00054   0.00009
  48        2PY         0.00023  -0.00001  -0.00004   0.00004  -0.00026
  49        2PZ        -0.00010  -0.00002  -0.00015   0.00003  -0.00020
  50        3S          0.00717   0.00210   0.01325  -0.00207   0.01284
  51        3PX         0.00000  -0.00401   0.00064  -0.00173  -0.00028
  52        3PY        -0.00037   0.00032   0.00201  -0.00036   0.00223
  53        3PZ        -0.00024  -0.00004  -0.00026   0.00002  -0.00015
  54        4S         -0.00532  -0.00249  -0.01578   0.00377  -0.02340
  55        4PX         0.00000   0.00575  -0.00091   0.00311   0.00050
  56        4PY         0.00079  -0.00036  -0.00232   0.00095  -0.00592
  57        4PZ         0.00083   0.00055   0.00349  -0.00071   0.00438
  58        5S         -0.00091   0.00042   0.00253   0.00472  -0.02931
  59        5PX         0.00000  -0.00267   0.00042   0.00127   0.00020
  60        5PY         0.00065  -0.00004  -0.00028   0.00096  -0.00594
  61        5PZ         0.00027   0.00006   0.00038  -0.00025   0.00152
  62        6D 0        0.00014  -0.00006  -0.00036   0.00016  -0.00099
  63        6D+1        0.00000  -0.00006   0.00001  -0.00010  -0.00002
  64        6D-1       -0.00001   0.00001   0.00003  -0.00001   0.00009
  65        6D+2       -0.00031   0.00007   0.00044  -0.00018   0.00111
  66        6D-2        0.00000  -0.00220   0.00035  -0.00108  -0.00017
  67 4   C  1S          0.22964   0.30349   0.11699   0.30339  -0.11507
  68        2S          0.18938   0.24977   0.09628   0.24960  -0.09467
  69        2PX        -0.00020   0.00019  -0.00040   0.00012  -0.00034
  70        2PY         0.00012   0.00025  -0.00072  -0.00029  -0.00039
  71        2PZ        -0.00010  -0.00014  -0.00006  -0.00019   0.00007
  72        3S          0.00721   0.01254   0.00483   0.01214  -0.00460
  73        3PX         0.00031  -0.00238   0.00126  -0.00151   0.00151
  74        3PY        -0.00019  -0.00031   0.00365   0.00159   0.00102
  75        3PZ        -0.00024  -0.00025  -0.00010  -0.00014   0.00005
  76        4S         -0.00539  -0.01498  -0.00579  -0.02217   0.00839
  77        4PX        -0.00066   0.00296  -0.00197   0.00430  -0.00331
  78        4PY         0.00039   0.00070  -0.00514  -0.00378  -0.00149
  79        4PZ         0.00085   0.00330   0.00127   0.00415  -0.00157
  80        5S         -0.00100   0.00229   0.00082  -0.02782   0.01051
  81        5PX        -0.00055  -0.00023   0.00136   0.00466  -0.00244
  82        5PY         0.00031  -0.00098   0.00212  -0.00322   0.00003
  83        5PZ         0.00027   0.00036   0.00014   0.00144  -0.00055
  84        6D 0        0.00013  -0.00034  -0.00013  -0.00094   0.00036
  85        6D+1        0.00001  -0.00004   0.00002  -0.00005   0.00008
  86        6D-1        0.00000   0.00000   0.00005   0.00007   0.00007
  87        6D+2        0.00016   0.00048  -0.00188  -0.00086  -0.00068
  88        6D-2       -0.00026   0.00076  -0.00090   0.00072  -0.00086
  89 5   C  1S          0.22986   0.25234  -0.20410  -0.25202  -0.20538
  90        2S          0.18956   0.20767  -0.16797  -0.20734  -0.16897
  91        2PX        -0.00020   0.00031   0.00032  -0.00001  -0.00036
  92        2PY        -0.00012  -0.00046  -0.00061  -0.00040   0.00028
  93        2PZ        -0.00010  -0.00012   0.00010   0.00015   0.00013
  94        3S          0.00722   0.01043  -0.00844  -0.01008  -0.00822
  95        3PX         0.00031  -0.00265  -0.00046   0.00096   0.00191
  96        3PY         0.00018   0.00142   0.00337   0.00183  -0.00046
  97        3PZ        -0.00024  -0.00021   0.00017   0.00012   0.00009
  98        4S         -0.00538  -0.01243   0.01009   0.01840   0.01504
  99        4PX        -0.00068   0.00342   0.00097  -0.00304  -0.00453
 100        4PY        -0.00039  -0.00226  -0.00467  -0.00405   0.00020
 101        4PZ         0.00085   0.00275  -0.00222  -0.00344  -0.00281
 102        5S         -0.00093   0.00196  -0.00153   0.02308   0.01889
 103        5PX        -0.00056  -0.00065  -0.00122  -0.00365  -0.00382
 104        5PY        -0.00033   0.00159   0.00172  -0.00304  -0.00105
 105        5PZ         0.00027   0.00030  -0.00024  -0.00120  -0.00098
 106        6D 0        0.00014  -0.00029   0.00023   0.00078   0.00064
 107        6D+1        0.00001  -0.00004   0.00000   0.00003   0.00009
 108        6D-1        0.00000   0.00002   0.00005   0.00009  -0.00004
 109        6D+2        0.00015   0.00104   0.00164   0.00103  -0.00037
 110        6D-2        0.00027  -0.00100  -0.00062   0.00041   0.00104
 111 6   C  1S          0.22997  -0.05081  -0.32063  -0.05172   0.32086
 112        2S          0.18965  -0.04182  -0.26387  -0.04255   0.26397
 113        2PX         0.00000   0.00087  -0.00014  -0.00054  -0.00009
 114        2PY        -0.00023  -0.00001  -0.00004  -0.00004   0.00026
 115        2PZ        -0.00010   0.00002   0.00015   0.00003  -0.00020
 116        3S          0.00722  -0.00210  -0.01325  -0.00207   0.01283
 117        3PX         0.00000  -0.00401   0.00064   0.00173   0.00028
 118        3PY         0.00036   0.00032   0.00202   0.00036  -0.00223
 119        3PZ        -0.00024   0.00004   0.00026   0.00002  -0.00015
 120        4S         -0.00540   0.00250   0.01581   0.00378  -0.02347
 121        4PX         0.00000   0.00575  -0.00091  -0.00311  -0.00050
 122        4PY        -0.00077  -0.00037  -0.00233  -0.00096   0.00596
 123        4PZ         0.00085  -0.00055  -0.00349  -0.00071   0.00438
 124        5S         -0.00096  -0.00041  -0.00248   0.00475  -0.02950
 125        5PX         0.00000  -0.00267   0.00042  -0.00127  -0.00020
 126        5PY        -0.00064  -0.00004  -0.00030  -0.00096   0.00598
 127        5PZ         0.00027  -0.00006  -0.00038  -0.00025   0.00152
 128        6D 0        0.00014   0.00006   0.00036   0.00016  -0.00099
 129        6D+1        0.00000  -0.00006   0.00001   0.00010   0.00002
 130        6D-1        0.00001   0.00001   0.00003   0.00001  -0.00009
 131        6D+2       -0.00031  -0.00007  -0.00044  -0.00018   0.00111
 132        6D-2        0.00000   0.00220  -0.00035  -0.00108  -0.00017
 133 7   H  1S         -0.00020  -0.00001  -0.00004  -0.00004   0.00024
 134        2S         -0.00002  -0.00011  -0.00069  -0.00007   0.00042
 135        3S          0.00265  -0.00015  -0.00097  -0.00001   0.00003
 136 8   H  1S         -0.00020   0.00003  -0.00003  -0.00019  -0.00016
 137        2S         -0.00002   0.00054  -0.00044  -0.00033  -0.00027
 138        3S          0.00265   0.00077  -0.00061  -0.00003  -0.00001
 139 9   H  1S         -0.00020   0.00004   0.00002   0.00023  -0.00009
 140        2S         -0.00002   0.00065   0.00025   0.00040  -0.00015
 141        3S          0.00265   0.00092   0.00035   0.00003  -0.00001
 142 10  H  1S         -0.00020   0.00001   0.00004  -0.00004   0.00024
 143        2S         -0.00002   0.00011   0.00069  -0.00007   0.00042
 144        3S          0.00265   0.00016   0.00098  -0.00001   0.00004
 145 11  H  1S         -0.00020  -0.00003   0.00003  -0.00019  -0.00016
 146        2S         -0.00002  -0.00054   0.00044  -0.00033  -0.00027
 147        3S          0.00265  -0.00076   0.00062  -0.00002  -0.00002
 148 12  H  1S         -0.00020  -0.00004  -0.00002   0.00023  -0.00009
 149        2S         -0.00002  -0.00065  -0.00025   0.00040  -0.00015
 150        3S          0.00265  -0.00092  -0.00035   0.00003  -0.00001
 151 13  H  1S         -0.00022   0.00056   0.00021  -0.00028   0.00011
 152        2S          0.00055  -0.00341  -0.00131   0.00233  -0.00089
 153        3S          0.00158  -0.00299  -0.00114   0.00590  -0.00225
 154 14  H  1S         -0.00022  -0.00009  -0.00059   0.00005  -0.00030
 155        2S          0.00054   0.00057   0.00360  -0.00040   0.00246
 156        3S          0.00157   0.00050   0.00315  -0.00100   0.00623
 157 15  H  1S         -0.00022  -0.00047   0.00038   0.00023   0.00019
 158        2S          0.00055   0.00284  -0.00230  -0.00193  -0.00158
 159        3S          0.00158   0.00249  -0.00201  -0.00489  -0.00399
 160 16  H  1S         -0.00022   0.00047  -0.00038   0.00023   0.00019
 161        2S          0.00054  -0.00284   0.00230  -0.00193  -0.00157
 162        3S          0.00158  -0.00249   0.00202  -0.00490  -0.00398
 163 17  H  1S         -0.00022  -0.00056  -0.00022  -0.00028   0.00011
 164        2S          0.00055   0.00341   0.00131   0.00233  -0.00088
 165        3S          0.00158   0.00299   0.00116   0.00590  -0.00224
 166 18  H  1S         -0.00022   0.00009   0.00059   0.00005  -0.00030
 167        2S          0.00055  -0.00057  -0.00361  -0.00040   0.00246
 168        3S          0.00158  -0.00050  -0.00316  -0.00100   0.00624
                           6         7         8         9        10
                           O         O         O         O         O
     Eigenvalues --   -10.13019  -0.92706  -0.82051  -0.82051  -0.65578
   1 1   C  1S          0.22946  -0.04780  -0.05581   0.03646  -0.05229
   2        2S          0.18871  -0.07384  -0.08629   0.05638  -0.08156
   3        2PX        -0.00019   0.02090  -0.00196  -0.02339  -0.00399
   4        2PY         0.00011  -0.01207  -0.02496  -0.02642   0.03597
   5        2PZ        -0.00021  -0.01741  -0.02373   0.01551  -0.02506
   6        3S          0.00995   0.18442   0.21639  -0.14138   0.20516
   7        3PX         0.00116   0.02769  -0.01623  -0.03280  -0.01961
   8        3PY        -0.00067  -0.01598  -0.03652  -0.05132   0.06055
   9        3PZ         0.00013  -0.02808  -0.03886   0.02539  -0.04269
  10        4S         -0.04341   0.08817   0.12675  -0.08282   0.24106
  11        4PX        -0.01638   0.00706   0.00757  -0.01360   0.01952
  12        4PY         0.00946  -0.00407  -0.01352  -0.00617   0.00123
  13        4PZ         0.00402  -0.01386  -0.02284   0.01492  -0.04943
  14        5S         -0.08088   0.00422   0.06415  -0.04190   0.09554
  15        5PX        -0.01370  -0.00163   0.01123   0.01389   0.00635
  16        5PY         0.00792   0.00095   0.01595   0.02633  -0.00953
  17        5PZ         0.00143  -0.00109  -0.00120   0.00079   0.00229
  18        6D 0       -0.00090  -0.00126   0.00319  -0.00208   0.00737
  19        6D+1        0.00008  -0.00165   0.00105   0.00208   0.00158
  20        6D-1       -0.00005   0.00095   0.00232   0.00328  -0.00376
  21        6D+2       -0.00044   0.00023  -0.00709  -0.01174   0.00724
  22        6D-2        0.00077  -0.00040  -0.00503  -0.00616  -0.00399
  23 2   C  1S         -0.22982  -0.04780  -0.05948  -0.03010   0.04378
  24        2S         -0.18900  -0.07384  -0.09197  -0.04654   0.06828
  25        2PX         0.00019   0.02090   0.00063   0.02346  -0.00960
  26        2PY         0.00011   0.01207   0.02190  -0.02901   0.05253
  27        2PZ         0.00021  -0.01741  -0.02530  -0.01280   0.02098
  28        3S         -0.00996   0.18442   0.23063   0.11671  -0.17175
  29        3PX        -0.00117   0.02769  -0.01253   0.03439  -0.00250
  30        3PY        -0.00067   0.01598   0.03066  -0.05502   0.08346
  31        3PZ        -0.00013  -0.02808  -0.04141  -0.02096   0.03573
  32        4S          0.04344   0.08817   0.13509   0.06838  -0.20180
  33        4PX         0.01639   0.00706   0.00902   0.01269  -0.02115
  34        4PY         0.00946   0.00407   0.01276  -0.00762   0.00936
  35        4PZ        -0.00403  -0.01386  -0.02434  -0.01231   0.04138
  36        5S          0.08092   0.00422   0.06837   0.03459  -0.07998
  37        5PX         0.01371  -0.00163   0.00964  -0.01504  -0.00306
  38        5PY         0.00792  -0.00095  -0.01296   0.02793  -0.01189
  39        5PZ        -0.00143  -0.00109  -0.00128  -0.00065  -0.00192
  40        6D 0        0.00090  -0.00126   0.00340   0.00172  -0.00617
  41        6D+1       -0.00008  -0.00165   0.00082  -0.00218  -0.00023
  42        6D-1       -0.00005  -0.00095  -0.00195   0.00352  -0.00504
  43        6D+2        0.00044   0.00023  -0.00576   0.01245  -0.00935
  44        6D-2        0.00077   0.00040   0.00432  -0.00668  -0.00144
  45 3   C  1S          0.23043  -0.04780  -0.00367  -0.06657   0.00852
  46        2S          0.18951  -0.07384  -0.00568  -0.10292   0.01328
  47        2PX         0.00000   0.00000  -0.04124   0.00228   0.07945
  48        2PY        -0.00022   0.02413   0.00071   0.01286   0.00349
  49        2PZ        -0.00021  -0.01741  -0.00156  -0.02831   0.00408
  50        3S          0.00999   0.18443   0.01424   0.25810  -0.03342
  51        3PX         0.00000   0.00000  -0.07256   0.00400   0.11616
  52        3PY         0.00135   0.03197   0.00028   0.00502   0.00770
  53        3PZ         0.00013  -0.02808  -0.00256  -0.04635   0.00695
  54        4S         -0.04347   0.08810   0.00834   0.15111  -0.03926
  55        4PX         0.00000   0.00000  -0.01447   0.00080   0.02951
  56        4PY        -0.01893   0.00812   0.00087   0.01585  -0.00265
  57        4PZ         0.00403  -0.01385  -0.00150  -0.02722   0.00805
  58        5S         -0.08093   0.00405   0.00422   0.07651  -0.01556
  59        5PX         0.00000   0.00000   0.03547  -0.00196  -0.01387
  60        5PY        -0.01584  -0.00193   0.00012   0.00208  -0.00167
  61        5PZ         0.00144  -0.00109  -0.00008  -0.00143  -0.00037
  62        6D 0       -0.00090  -0.00126   0.00021   0.00380  -0.00120
  63        6D+1        0.00000   0.00000   0.00463  -0.00026  -0.00671
  64        6D-1        0.00010  -0.00190  -0.00002  -0.00030  -0.00053
  65        6D+2        0.00089  -0.00047  -0.00005  -0.00097   0.00115
  66        6D-2        0.00000   0.00000  -0.01580   0.00087   0.01166
  67 4   C  1S         -0.22969  -0.04780   0.05581  -0.03646  -0.05229
  68        2S         -0.18890  -0.07384   0.08629  -0.05638  -0.08156
  69        2PX        -0.00019  -0.02090  -0.00196  -0.02339   0.00399
  70        2PY         0.00011   0.01207  -0.02496  -0.02642  -0.03597
  71        2PZ         0.00021  -0.01741   0.02373  -0.01551  -0.02506
  72        3S         -0.00996   0.18442  -0.21639   0.14138   0.20516
  73        3PX         0.00117  -0.02769  -0.01623  -0.03280   0.01961
  74        3PY        -0.00067   0.01598  -0.03652  -0.05132  -0.06056
  75        3PZ        -0.00013  -0.02808   0.03886  -0.02539  -0.04269
  76        4S          0.04343   0.08817  -0.12675   0.08282   0.24106
  77        4PX        -0.01639  -0.00706   0.00757  -0.01360  -0.01952
  78        4PY         0.00946   0.00407  -0.01352  -0.00617  -0.00123
  79        4PZ        -0.00403  -0.01386   0.02284  -0.01492  -0.04943
  80        5S          0.08092   0.00422  -0.06415   0.04190   0.09554
  81        5PX        -0.01371   0.00163   0.01123   0.01389  -0.00635
  82        5PY         0.00792  -0.00095   0.01595   0.02633   0.00953
  83        5PZ        -0.00143  -0.00109   0.00120  -0.00079   0.00229
  84        6D 0        0.00090  -0.00126  -0.00319   0.00208   0.00737
  85        6D+1        0.00008   0.00165   0.00105   0.00208  -0.00158
  86        6D-1       -0.00005  -0.00095   0.00232   0.00328   0.00376
  87        6D+2        0.00044   0.00023   0.00709   0.01174   0.00724
  88        6D-2       -0.00077  -0.00040   0.00503   0.00616  -0.00399
  89 5   C  1S          0.22958  -0.04780   0.05948   0.03010   0.04378
  90        2S          0.18881  -0.07384   0.09197   0.04654   0.06828
  91        2PX         0.00019  -0.02090   0.00063   0.02346   0.00960
  92        2PY         0.00011  -0.01207   0.02190  -0.02901  -0.05253
  93        2PZ        -0.00021  -0.01741   0.02530   0.01280   0.02098
  94        3S          0.00995   0.18442  -0.23063  -0.11671  -0.17175
  95        3PX        -0.00116  -0.02769  -0.01253   0.03439   0.00250
  96        3PY        -0.00067  -0.01598   0.03066  -0.05502  -0.08346
  97        3PZ         0.00013  -0.02808   0.04141   0.02096   0.03573
  98        4S         -0.04342   0.08817  -0.13509  -0.06838  -0.20180
  99        4PX         0.01638  -0.00706   0.00902   0.01269   0.02115
 100        4PY         0.00946  -0.00407   0.01276  -0.00762  -0.00936
 101        4PZ         0.00402  -0.01386   0.02434   0.01231   0.04138
 102        5S         -0.08088   0.00422  -0.06837  -0.03459  -0.07998
 103        5PX         0.01370   0.00163   0.00964  -0.01504   0.00306
 104        5PY         0.00792   0.00095  -0.01296   0.02793   0.01189
 105        5PZ         0.00143  -0.00109   0.00128   0.00065  -0.00192
 106        6D 0       -0.00090  -0.00126  -0.00340  -0.00172  -0.00617
 107        6D+1       -0.00008   0.00165   0.00082  -0.00218   0.00023
 108        6D-1       -0.00005   0.00095  -0.00195   0.00352   0.00504
 109        6D+2       -0.00044   0.00023   0.00576  -0.01245  -0.00935
 110        6D-2       -0.00077   0.00040  -0.00432   0.00668  -0.00144
 111 6   C  1S         -0.22951  -0.04780   0.00367   0.06657   0.00852
 112        2S         -0.18875  -0.07384   0.00568   0.10292   0.01328
 113        2PX         0.00000   0.00000  -0.04124   0.00228  -0.07945
 114        2PY        -0.00022  -0.02413   0.00071   0.01286  -0.00349
 115        2PZ         0.00021  -0.01741   0.00156   0.02831   0.00408
 116        3S         -0.00995   0.18443  -0.01424  -0.25810  -0.03342
 117        3PX         0.00000   0.00000  -0.07256   0.00400  -0.11616
 118        3PY         0.00134  -0.03197   0.00028   0.00502  -0.00770
 119        3PZ        -0.00013  -0.02808   0.00256   0.04634   0.00695
 120        4S          0.04341   0.08810  -0.00834  -0.15111  -0.03926
 121        4PX         0.00000   0.00000  -0.01447   0.00080  -0.02951
 122        4PY        -0.01892  -0.00812   0.00087   0.01585   0.00265
 123        4PZ        -0.00402  -0.01385   0.00150   0.02722   0.00805
 124        5S          0.08086   0.00404  -0.00422  -0.07651  -0.01556
 125        5PX         0.00000   0.00000   0.03547  -0.00196   0.01387
 126        5PY        -0.01582   0.00193   0.00012   0.00208   0.00167
 127        5PZ        -0.00143  -0.00109   0.00008   0.00143  -0.00037
 128        6D 0        0.00090  -0.00126  -0.00021  -0.00380  -0.00120
 129        6D+1        0.00000   0.00000   0.00463  -0.00026   0.00671
 130        6D-1        0.00009   0.00190  -0.00002  -0.00030   0.00053
 131        6D+2       -0.00088  -0.00047   0.00005   0.00097   0.00115
 132        6D-2        0.00000   0.00000   0.01580  -0.00087   0.01166
 133 7   H  1S         -0.00034   0.01892  -0.00217  -0.03941  -0.00926
 134        2S          0.00116   0.01326  -0.00170  -0.03090  -0.00781
 135        3S          0.00321  -0.00609  -0.00002  -0.00037  -0.00193
 136 8   H  1S          0.00034   0.01892  -0.03522  -0.01782  -0.04759
 137        2S         -0.00116   0.01326  -0.02761  -0.01397  -0.04013
 138        3S         -0.00320  -0.00608  -0.00034  -0.00017  -0.00992
 139 9   H  1S         -0.00034   0.01892  -0.03304   0.02159   0.05684
 140        2S          0.00116   0.01326  -0.02591   0.01693   0.04794
 141        3S          0.00321  -0.00608  -0.00032   0.00021   0.01185
 142 10  H  1S          0.00034   0.01892   0.00217   0.03941  -0.00926
 143        2S         -0.00115   0.01326   0.00170   0.03090  -0.00781
 144        3S         -0.00320  -0.00609   0.00002   0.00037  -0.00193
 145 11  H  1S         -0.00034   0.01892   0.03522   0.01782  -0.04759
 146        2S          0.00116   0.01326   0.02761   0.01397  -0.04013
 147        3S          0.00321  -0.00608   0.00034   0.00017  -0.00992
 148 12  H  1S          0.00034   0.01892   0.03304  -0.02159   0.05684
 149        2S         -0.00116   0.01326   0.02591  -0.01693   0.04794
 150        3S         -0.00320  -0.00608   0.00032  -0.00021   0.01185
 151 13  H  1S         -0.00002   0.04526   0.05889  -0.03847   0.06296
 152        2S          0.00190   0.02745   0.03918  -0.02560   0.04045
 153        3S          0.00536  -0.00618  -0.00588   0.00384  -0.00441
 154 14  H  1S         -0.00002   0.04526   0.00388   0.07024  -0.01025
 155        2S          0.00191   0.02745   0.00258   0.04675  -0.00659
 156        3S          0.00537  -0.00616  -0.00039  -0.00699   0.00072
 157 15  H  1S         -0.00002   0.04526  -0.06276  -0.03176  -0.05271
 158        2S          0.00190   0.02745  -0.04176  -0.02114  -0.03386
 159        3S          0.00536  -0.00618   0.00626   0.00317   0.00369
 160 16  H  1S          0.00002   0.04526   0.06276   0.03176  -0.05271
 161        2S         -0.00191   0.02745   0.04176   0.02114  -0.03386
 162        3S         -0.00536  -0.00618  -0.00626  -0.00317   0.00369
 163 17  H  1S          0.00002   0.04526  -0.05889   0.03847   0.06296
 164        2S         -0.00190   0.02745  -0.03918   0.02560   0.04045
 165        3S         -0.00536  -0.00618   0.00588  -0.00384  -0.00441
 166 18  H  1S          0.00002   0.04526  -0.00388  -0.07024  -0.01025
 167        2S         -0.00190   0.02745  -0.00258  -0.04675  -0.00659
 168        3S         -0.00536  -0.00616   0.00039   0.00699   0.00072
                          11        12        13        14        15
                           O         O         O         O         O
     Eigenvalues --    -0.65578  -0.55235  -0.50481  -0.50410  -0.44760
   1 1   C  1S          0.02036  -0.00884  -0.01541  -0.03424   0.00000
   2        2S          0.03175  -0.01355  -0.02475  -0.05387   0.00000
   3        2PX         0.04468   0.06253  -0.04591  -0.04409  -0.06316
   4        2PY         0.06070  -0.03610   0.02651   0.02546  -0.10942
   5        2PZ         0.00976   0.05444   0.05959  -0.02141   0.00000
   6        3S         -0.07986   0.03521   0.07135   0.13888   0.00000
   7        3PX         0.07070   0.09461  -0.07041  -0.07328  -0.09003
   8        3PY         0.08565  -0.05463   0.04065   0.04231  -0.15596
   9        3PZ         0.01662   0.08182   0.08723  -0.03730   0.00001
  10        4S         -0.09383   0.01908   0.07832   0.19354   0.00000
  11        4PX         0.00842   0.04878  -0.04407  -0.06592  -0.05178
  12        4PY         0.02727  -0.02817   0.02544   0.03805  -0.08970
  13        4PZ         0.01924   0.03529   0.05154  -0.06515   0.00000
  14        5S         -0.03720  -0.00618  -0.00135   0.24541   0.00003
  15        5PX        -0.01000  -0.00218  -0.00767   0.02777   0.00274
  16        5PY        -0.00932   0.00127   0.00443  -0.01602   0.00475
  17        5PZ        -0.00090   0.00069  -0.00059  -0.00382   0.00000
  18        6D 0       -0.00287  -0.01212  -0.01227   0.00921   0.00000
  19        6D+1       -0.00426   0.00076   0.00980   0.00490   0.00382
  20        6D-1       -0.00485  -0.00044  -0.00566  -0.00283   0.00662
  21        6D+2        0.00814   0.00190   0.00007   0.01147  -0.00608
  22        6D-2        0.00788  -0.00330  -0.00013  -0.01986  -0.00351
  23 2   C  1S          0.03511  -0.00884  -0.01542   0.03423   0.00000
  24        2S          0.05476  -0.01355  -0.02477   0.05386   0.00000
  25        2PX         0.04382   0.06253  -0.04593   0.04408  -0.06316
  26        2PY        -0.04711   0.03610  -0.02652   0.02545   0.10942
  27        2PZ         0.01683   0.05444   0.05958   0.02143   0.00000
  28        3S         -0.13774   0.03521   0.07140  -0.13885   0.00001
  29        3PX         0.07333   0.09461  -0.07044   0.07326  -0.09002
  30        3PY        -0.06354   0.05462  -0.04066   0.04230   0.15596
  31        3PZ         0.02866   0.08182   0.08721   0.03733   0.00000
  32        4S         -0.16183   0.01909   0.07839  -0.19351   0.00000
  33        4PX         0.00217   0.04878  -0.04409   0.06591  -0.05178
  34        4PY        -0.02564   0.02817  -0.02545   0.03805   0.08970
  35        4PZ         0.03319   0.03529   0.05152   0.06517   0.00000
  36        5S         -0.06415  -0.00619  -0.00127  -0.24541   0.00002
  37        5PX        -0.01144  -0.00218  -0.00766  -0.02777   0.00274
  38        5PY         0.00603  -0.00127  -0.00442  -0.01602  -0.00475
  39        5PZ        -0.00154   0.00069  -0.00059   0.00382   0.00000
  40        6D 0       -0.00495  -0.01212  -0.01227  -0.00921   0.00000
  41        6D+1       -0.00454   0.00076   0.00980  -0.00490   0.00382
  42        6D-1        0.00350   0.00044   0.00566  -0.00283  -0.00662
  43        6D+2        0.00560   0.00190   0.00008  -0.01147  -0.00608
  44        6D-2       -0.00872   0.00330   0.00013  -0.01986   0.00351
  45 3   C  1S         -0.05547  -0.00884  -0.01541  -0.03424   0.00000
  46        2S         -0.08651  -0.01355  -0.02475  -0.05387   0.00000
  47        2PX         0.01220   0.00000   0.00000   0.00000   0.12633
  48        2PY        -0.02274   0.07221  -0.05301  -0.05091   0.00000
  49        2PZ        -0.02658   0.05444   0.05959  -0.02141   0.00000
  50        3S          0.21762   0.03521   0.07134   0.13889   0.00000
  51        3PX         0.01784   0.00000   0.00000   0.00000   0.18006
  52        3PY        -0.05013   0.10925  -0.08130  -0.08462   0.00000
  53        3PZ        -0.04528   0.08182   0.08722  -0.03730   0.00000
  54        4S          0.25565   0.01911   0.07839   0.19351   0.00000
  55        4PX         0.00453   0.00000   0.00000   0.00000   0.10357
  56        4PY         0.01728   0.05633  -0.05083  -0.07611   0.00000
  57        4PZ        -0.05242   0.03530   0.05154  -0.06514   0.00000
  58        5S          0.10135  -0.00642  -0.00118   0.24546   0.00001
  59        5PX        -0.00213   0.00000   0.00000   0.00000  -0.00546
  60        5PY         0.01089  -0.00257  -0.00881   0.03206   0.00000
  61        5PZ         0.00244   0.00070  -0.00059  -0.00382   0.00000
  62        6D 0        0.00781  -0.01212  -0.01227   0.00921   0.00000
  63        6D+1       -0.00103   0.00000   0.00000   0.00000  -0.00765
  64        6D-1        0.00345   0.00087   0.01131   0.00566   0.00000
  65        6D+2       -0.00751  -0.00381  -0.00014  -0.02293   0.00000
  66        6D-2        0.00179   0.00000   0.00000   0.00000   0.00702
  67 4   C  1S          0.02036  -0.00884  -0.01542   0.03423   0.00000
  68        2S          0.03175  -0.01355  -0.02477   0.05386   0.00000
  69        2PX        -0.04468  -0.06253   0.04593  -0.04408  -0.06316
  70        2PY        -0.06070   0.03610  -0.02652   0.02545  -0.10942
  71        2PZ         0.00976   0.05444   0.05958   0.02143   0.00000
  72        3S         -0.07987   0.03521   0.07140  -0.13886   0.00000
  73        3PX        -0.07070  -0.09461   0.07044  -0.07326  -0.09003
  74        3PY        -0.08565   0.05463  -0.04066   0.04229  -0.15596
  75        3PZ         0.01662   0.08182   0.08721   0.03733  -0.00001
  76        4S         -0.09383   0.01908   0.07839  -0.19351   0.00000
  77        4PX        -0.00842  -0.04878   0.04409  -0.06591  -0.05178
  78        4PY        -0.02726   0.02816  -0.02545   0.03804  -0.08970
  79        4PZ         0.01924   0.03529   0.05152   0.06517   0.00000
  80        5S         -0.03720  -0.00619  -0.00127  -0.24541  -0.00003
  81        5PX         0.01000   0.00218   0.00767   0.02777   0.00274
  82        5PY         0.00932  -0.00127  -0.00442  -0.01602   0.00475
  83        5PZ        -0.00090   0.00069  -0.00059   0.00382   0.00000
  84        6D 0       -0.00287  -0.01212  -0.01227  -0.00921   0.00000
  85        6D+1        0.00426  -0.00076  -0.00980   0.00490   0.00382
  86        6D-1        0.00485   0.00044   0.00566  -0.00283   0.00662
  87        6D+2        0.00814   0.00190   0.00008  -0.01147   0.00608
  88        6D-2        0.00788  -0.00330  -0.00013   0.01986   0.00351
  89 5   C  1S          0.03511  -0.00884  -0.01541  -0.03424   0.00000
  90        2S          0.05476  -0.01355  -0.02475  -0.05387   0.00000
  91        2PX        -0.04382  -0.06253   0.04591   0.04409  -0.06316
  92        2PY         0.04711  -0.03610   0.02651   0.02546   0.10942
  93        2PZ         0.01683   0.05444   0.05959  -0.02141   0.00000
  94        3S         -0.13774   0.03521   0.07135   0.13888  -0.00001
  95        3PX        -0.07333  -0.09461   0.07041   0.07328  -0.09002
  96        3PY         0.06354  -0.05463   0.04065   0.04231   0.15596
  97        3PZ         0.02866   0.08182   0.08723  -0.03730   0.00000
  98        4S         -0.16183   0.01909   0.07832   0.19354   0.00000
  99        4PX        -0.00217  -0.04878   0.04407   0.06592  -0.05178
 100        4PY         0.02564  -0.02817   0.02544   0.03806   0.08970
 101        4PZ         0.03319   0.03529   0.05154  -0.06515   0.00000
 102        5S         -0.06415  -0.00618  -0.00135   0.24541  -0.00002
 103        5PX         0.01144   0.00218   0.00767  -0.02777   0.00274
 104        5PY        -0.00603   0.00127   0.00443  -0.01602  -0.00475
 105        5PZ        -0.00154   0.00069  -0.00059  -0.00382   0.00000
 106        6D 0       -0.00495  -0.01212  -0.01227   0.00921   0.00000
 107        6D+1        0.00454  -0.00076  -0.00980  -0.00490   0.00382
 108        6D-1       -0.00350  -0.00044  -0.00566  -0.00283  -0.00662
 109        6D+2        0.00560   0.00190   0.00007   0.01147   0.00608
 110        6D-2       -0.00872   0.00330   0.00013   0.01986  -0.00351
 111 6   C  1S         -0.05547  -0.00884  -0.01542   0.03424   0.00000
 112        2S         -0.08651  -0.01355  -0.02477   0.05386   0.00000
 113        2PX        -0.01220   0.00000   0.00000   0.00000   0.12633
 114        2PY         0.02274  -0.07220   0.05303  -0.05089   0.00000
 115        2PZ        -0.02658   0.05444   0.05958   0.02143   0.00000
 116        3S          0.21762   0.03521   0.07139  -0.13886   0.00000
 117        3PX        -0.01784   0.00000   0.00000   0.00000   0.18006
 118        3PY         0.05013  -0.10925   0.08133  -0.08459   0.00000
 119        3PZ        -0.04527   0.08182   0.08721   0.03733   0.00000
 120        4S          0.25565   0.01911   0.07846  -0.19348   0.00000
 121        4PX        -0.00453   0.00000   0.00000   0.00000   0.10357
 122        4PY        -0.01728  -0.05633   0.05085  -0.07609   0.00000
 123        4PZ        -0.05242   0.03530   0.05152   0.06516   0.00000
 124        5S          0.10135  -0.00644  -0.00110  -0.24546  -0.00001
 125        5PX         0.00213   0.00000   0.00000   0.00000  -0.00546
 126        5PY        -0.01089   0.00257   0.00880   0.03207   0.00000
 127        5PZ         0.00244   0.00070  -0.00059   0.00382   0.00000
 128        6D 0        0.00781  -0.01212  -0.01227  -0.00921   0.00000
 129        6D+1        0.00103   0.00000   0.00000   0.00000  -0.00764
 130        6D-1       -0.00345  -0.00087  -0.01132   0.00566   0.00000
 131        6D+2       -0.00751  -0.00381  -0.00015   0.02293   0.00000
 132        6D-2        0.00179   0.00000   0.00000   0.00000  -0.00702
 133 7   H  1S          0.06029  -0.03827   0.05640  -0.07418   0.00000
 134        2S          0.05085  -0.03567   0.06332  -0.06330   0.00000
 135        3S          0.01257  -0.00098   0.01520  -0.01074   0.00000
 136 8   H  1S         -0.03816  -0.03827   0.05638   0.07420   0.00001
 137        2S         -0.03219  -0.03567   0.06329   0.06332   0.00001
 138        3S         -0.00796  -0.00098   0.01517   0.01074   0.00000
 139 9   H  1S         -0.02213  -0.03827   0.05640  -0.07418   0.00001
 140        2S         -0.01866  -0.03567   0.06331  -0.06330   0.00001
 141        3S         -0.00461  -0.00098   0.01517  -0.01073   0.00000
 142 10  H  1S          0.06029  -0.03827   0.05638   0.07420   0.00000
 143        2S          0.05085  -0.03567   0.06329   0.06332   0.00000
 144        3S          0.01257  -0.00098   0.01519   0.01074   0.00000
 145 11  H  1S         -0.03816  -0.03827   0.05640  -0.07418  -0.00001
 146        2S         -0.03219  -0.03567   0.06331  -0.06330  -0.00001
 147        3S         -0.00796  -0.00098   0.01517  -0.01073   0.00000
 148 12  H  1S         -0.02213  -0.03827   0.05638   0.07420  -0.00001
 149        2S         -0.01866  -0.03567   0.06329   0.06332  -0.00001
 150        3S         -0.00461  -0.00098   0.01517   0.01074   0.00000
 151 13  H  1S         -0.02451  -0.04727  -0.03673   0.05112   0.00000
 152        2S         -0.01575  -0.06463  -0.04676   0.03506  -0.00001
 153        3S          0.00171  -0.01714  -0.01495  -0.01257   0.00000
 154 14  H  1S          0.06678  -0.04727  -0.03673   0.05112   0.00000
 155        2S          0.04291  -0.06463  -0.04677   0.03507   0.00000
 156        3S         -0.00466  -0.01713  -0.01495  -0.01258   0.00000
 157 15  H  1S         -0.04227  -0.04727  -0.03673   0.05112   0.00000
 158        2S         -0.02716  -0.06463  -0.04676   0.03506   0.00000
 159        3S          0.00296  -0.01714  -0.01495  -0.01257   0.00000
 160 16  H  1S         -0.04227  -0.04727  -0.03671  -0.05113   0.00000
 161        2S         -0.02716  -0.06463  -0.04675  -0.03508   0.00000
 162        3S          0.00296  -0.01714  -0.01495   0.01257   0.00000
 163 17  H  1S         -0.02451  -0.04727  -0.03671  -0.05113   0.00000
 164        2S         -0.01575  -0.06463  -0.04675  -0.03508   0.00001
 165        3S          0.00171  -0.01714  -0.01495   0.01257   0.00000
 166 18  H  1S          0.06678  -0.04727  -0.03671  -0.05113   0.00000
 167        2S          0.04291  -0.06463  -0.04675  -0.03509   0.00000
 168        3S         -0.00466  -0.01713  -0.01496   0.01257   0.00000
                          16        17        18        19        20
                           O         O         O         O         O
     Eigenvalues --    -0.42968  -0.42967  -0.42241  -0.42241  -0.34332
   1 1   C  1S         -0.01664   0.01058   0.00256  -0.01912   0.00132
   2        2S         -0.02696   0.01714   0.00402  -0.03000   0.00206
   3        2PX        -0.03140   0.01128  -0.03707   0.10897   0.02328
   4        2PY         0.00906  -0.02078  -0.02956  -0.06974   0.11887
   5        2PZ         0.09533  -0.06063  -0.00565   0.04224  -0.00350
   6        3S          0.08151  -0.05183  -0.01166   0.08696  -0.00608
   7        3PX        -0.04648   0.01662  -0.05297   0.16526   0.02664
   8        3PY         0.01333  -0.03084  -0.03933  -0.10477   0.16408
   9        3PZ         0.14246  -0.09060  -0.00837   0.06251  -0.00565
  10        4S          0.08274  -0.05268  -0.00173   0.01312   0.00062
  11        4PX        -0.05319   0.02714  -0.04578   0.11759  -0.00391
  12        4PY         0.02377  -0.02658  -0.04167  -0.07701   0.14364
  13        4PZ         0.08987  -0.05715  -0.00540   0.04020  -0.00446
  14        5S         -0.10117   0.06495   0.00422  -0.02752  -0.03205
  15        5PX        -0.03686   0.00608  -0.00960   0.00923  -0.01365
  16        5PY         0.00307  -0.03221  -0.01364  -0.00792   0.00746
  17        5PZ         0.00147  -0.00093  -0.00053   0.00391  -0.00326
  18        6D 0       -0.01962   0.01248   0.00082  -0.00610   0.00090
  19        6D+1        0.00127  -0.01020  -0.00141  -0.00683   0.00002
  20        6D-1       -0.01055  -0.00955  -0.00446   0.00323  -0.00606
  21        6D+2        0.00264   0.00083  -0.01448  -0.00621   0.01764
  22        6D-2       -0.00194   0.00268  -0.00966   0.00610  -0.00383
  23 2   C  1S         -0.01748  -0.00912  -0.01528  -0.01178   0.00201
  24        2S         -0.02832  -0.01477  -0.02397  -0.01849   0.00313
  25        2PX        -0.03225  -0.00856   0.10303   0.05132  -0.00187
  26        2PY        -0.01081  -0.01993   0.02807   0.07035  -0.11632
  27        2PZ         0.10016   0.05225   0.03374   0.02603  -0.00533
  28        3S          0.08564   0.04467   0.06948   0.05358  -0.00925
  29        3PX        -0.04773  -0.01259   0.15394   0.08013  -0.01004
  30        3PY        -0.01591  -0.02959   0.04579   0.10211  -0.16210
  31        3PZ         0.14969   0.07808   0.04994   0.03852  -0.00860
  32        4S          0.08694   0.04541   0.01047   0.00811   0.00094
  33        4PX        -0.05531  -0.02250   0.11528   0.05132  -0.04580
  34        4PY        -0.02596  -0.02445   0.02459   0.08404  -0.14958
  35        4PZ         0.09442   0.04925   0.03213   0.02476  -0.00680
  36        5S         -0.10636  -0.05606  -0.02236  -0.01658  -0.04881
  37        5PX        -0.03725  -0.00290   0.01331  -0.00020  -0.02063
  38        5PY        -0.00581  -0.03183  -0.00412   0.01522  -0.01163
  39        5PZ         0.00155   0.00080   0.00313   0.00240  -0.00496
  40        6D 0       -0.02062  -0.01076  -0.00488  -0.00376   0.00137
  41        6D+1        0.00214   0.01005  -0.00380  -0.00584   0.00174
  42        6D-1        0.00970  -0.01042  -0.00544   0.00084   0.00627
  43        6D+2        0.00255  -0.00106   0.00592  -0.01460   0.01931
  44        6D-2        0.00216   0.00251  -0.01115   0.00246   0.01018
  45 3   C  1S         -0.00084  -0.01970  -0.01784   0.00734  -0.00334
  46        2S         -0.00137  -0.03192  -0.02799   0.01152  -0.00519
  47        2PX        -0.01462   0.00063  -0.01695  -0.04120   0.01479
  48        2PY        -0.00161  -0.03754   0.12059  -0.04962   0.09906
  49        2PZ         0.00484   0.11288   0.03940  -0.01621   0.00883
  50        3S          0.00413   0.09651   0.08113  -0.03338   0.01532
  51        3PX        -0.02178   0.00094  -0.02326  -0.05651   0.02006
  52        3PY        -0.00238  -0.05552   0.18243  -0.07506   0.14873
  53        3PZ         0.00723   0.16868   0.05830  -0.02398   0.01424
  54        4S          0.00420   0.09796   0.01226  -0.00504  -0.00154
  55        4PX        -0.01119   0.00048  -0.02265  -0.05504   0.01580
  56        4PY        -0.00294  -0.06858   0.13094  -0.05388   0.18965
  57        4PZ         0.00456   0.10641   0.03751  -0.01543   0.01126
  58        5S         -0.00512  -0.11940  -0.02492   0.01025   0.08086
  59        5PX        -0.02936   0.00126  -0.00639  -0.01552  -0.00001
  60        5PY        -0.00169  -0.03951   0.01126  -0.00463   0.03922
  61        5PZ         0.00007   0.00175   0.00364  -0.00150   0.00822
  62        6D 0       -0.00100  -0.02323  -0.00570   0.00234  -0.00227
  63        6D+1       -0.01583   0.00068  -0.00175  -0.00426  -0.00068
  64        6D-1        0.00032   0.00755  -0.00703   0.00289  -0.00769
  65        6D+2       -0.00015  -0.00355   0.00782  -0.00322   0.03061
  66        6D-2        0.00244  -0.00010  -0.00667  -0.01620   0.00172
  67 4   C  1S          0.01664  -0.01058  -0.00256   0.01912   0.00132
  68        2S          0.02696  -0.01714  -0.00402   0.03000   0.00206
  69        2PX        -0.03140   0.01128  -0.03708   0.10897  -0.02328
  70        2PY         0.00906  -0.02078  -0.02956  -0.06974  -0.11887
  71        2PZ        -0.09533   0.06063   0.00565  -0.04224  -0.00350
  72        3S         -0.08151   0.05183   0.01166  -0.08696  -0.00608
  73        3PX        -0.04648   0.01662  -0.05297   0.16526  -0.02664
  74        3PY         0.01333  -0.03085  -0.03933  -0.10477  -0.16408
  75        3PZ        -0.14246   0.09060   0.00837  -0.06251  -0.00565
  76        4S         -0.08274   0.05268   0.00173  -0.01312   0.00062
  77        4PX        -0.05319   0.02714  -0.04578   0.11759   0.00391
  78        4PY         0.02377  -0.02658  -0.04167  -0.07701  -0.14364
  79        4PZ        -0.08987   0.05715   0.00540  -0.04020  -0.00446
  80        5S          0.10117  -0.06495  -0.00422   0.02752  -0.03205
  81        5PX        -0.03686   0.00608  -0.00960   0.00923   0.01365
  82        5PY         0.00307  -0.03221  -0.01364  -0.00792  -0.00746
  83        5PZ        -0.00147   0.00093   0.00053  -0.00391  -0.00326
  84        6D 0        0.01962  -0.01248  -0.00082   0.00610   0.00090
  85        6D+1        0.00127  -0.01020  -0.00141  -0.00683  -0.00002
  86        6D-1       -0.01055  -0.00955  -0.00446   0.00323   0.00606
  87        6D+2       -0.00264  -0.00083   0.01448   0.00621   0.01764
  88        6D-2        0.00194  -0.00268   0.00966  -0.00610  -0.00383
  89 5   C  1S          0.01748   0.00912   0.01528   0.01178   0.00201
  90        2S          0.02832   0.01477   0.02397   0.01849   0.00313
  91        2PX        -0.03225  -0.00856   0.10303   0.05132   0.00187
  92        2PY        -0.01081  -0.01993   0.02807   0.07035   0.11632
  93        2PZ        -0.10016  -0.05225  -0.03374  -0.02603  -0.00533
  94        3S         -0.08564  -0.04467  -0.06948  -0.05358  -0.00925
  95        3PX        -0.04773  -0.01259   0.15394   0.08013   0.01004
  96        3PY        -0.01591  -0.02959   0.04579   0.10211   0.16210
  97        3PZ        -0.14969  -0.07808  -0.04994  -0.03852  -0.00860
[...]
  38        5PY        -0.00609
  39        5PZ         0.00417
  40        6D 0        0.02805
  41        6D+1        0.00960
  42        6D-1        0.01439
  43        6D+2        0.01934
  44        6D-2        0.02342
  45 3   C  1S          1.10270
  46        2S          0.88556
  47        2PX         0.23602
  48        2PY         0.22461
  49        2PZ         0.25078
  50        3S          0.74088
  51        3PX         0.52582
  52        3PY         0.54511
  53        3PZ         0.57258
  54        4S          0.48940
  55        4PX         0.15663
  56        4PY         0.34422
  57        4PZ         0.35600
  58        5S         -0.02162
  59        5PX        -0.03083
  60        5PY         0.06728
  61        5PZ         0.00417
  62        6D 0        0.02805
  63        6D+1        0.01679
  64        6D-1        0.00720
  65        6D+2        0.02546
  66        6D-2        0.01730
  67 4   C  1S          1.10270
  68        2S          0.88556
  69        2PX         0.22747
  70        2PY         0.23317
  71        2PZ         0.25078
  72        3S          0.74086
  73        3PX         0.54027
  74        3PY         0.53064
  75        3PZ         0.57258
  76        4S          0.48959
  77        4PX         0.29737
  78        4PY         0.20353
  79        4PZ         0.35602
  80        5S         -0.02148
  81        5PX         0.04279
  82        5PY        -0.00609
  83        5PZ         0.00417
  84        6D 0        0.02805
  85        6D+1        0.00960
  86        6D-1        0.01439
  87        6D+2        0.01934
  88        6D-2        0.02342
  89 5   C  1S          1.10270
  90        2S          0.88556
  91        2PX         0.22747
  92        2PY         0.23317
  93        2PZ         0.25078
  94        3S          0.74086
  95        3PX         0.54028
  96        3PY         0.53064
  97        3PZ         0.57258
  98        4S          0.48958
  99        4PX         0.29737
 100        4PY         0.20353
 101        4PZ         0.35602
 102        5S         -0.02150
 103        5PX         0.04279
 104        5PY        -0.00609
 105        5PZ         0.00416
 106        6D 0        0.02805
 107        6D+1        0.00960
 108        6D-1        0.01439
 109        6D+2        0.01934
 110        6D-2        0.02342
 111 6   C  1S          1.10270
 112        2S          0.88556
 113        2PX         0.23602
 114        2PY         0.22461
 115        2PZ         0.25078
 116        3S          0.74088
 117        3PX         0.52582
 118        3PY         0.54511
 119        3PZ         0.57257
 120        4S          0.48940
 121        4PX         0.15663
 122        4PY         0.34422
 123        4PZ         0.35601
 124        5S         -0.02159
 125        5PX        -0.03083
 126        5PY         0.06727
 127        5PZ         0.00417
 128        6D 0        0.02805
 129        6D+1        0.01679
 130        6D-1        0.00720
 131        6D+2        0.02546
 132        6D-2        0.01730
 133 7   H  1S          0.27741
 134        2S          0.38022
 135        3S          0.08715
 136 8   H  1S          0.27741
 137        2S          0.38021
 138        3S          0.08713
 139 9   H  1S          0.27741
 140        2S          0.38021
 141        3S          0.08713
 142 10  H  1S          0.27741
 143        2S          0.38022
 144        3S          0.08715
 145 11  H  1S          0.27741
 146        2S          0.38021
 147        3S          0.08713
 148 12  H  1S          0.27741
 149        2S          0.38021
 150        3S          0.08713
 151 13  H  1S          0.32087
 152        2S          0.36138
 153        3S          0.02844
 154 14  H  1S          0.32088
 155        2S          0.36141
 156        3S          0.02849
 157 15  H  1S          0.32087
 158        2S          0.36138
 159        3S          0.02844
 160 16  H  1S          0.32087
 161        2S          0.36138
 162        3S          0.02844
 163 17  H  1S          0.32087
 164        2S          0.36138
 165        3S          0.02844
 166 18  H  1S          0.32088
 167        2S          0.36141
 168        3S          0.02849
          Condensed to atoms (all electrons):
 Mulliken charges:
               1
     1  C   -0.544693
     2  C   -0.544716
     3  C   -0.544107
     4  C   -0.544718
     5  C   -0.544691
     6  C   -0.544135
     7  H    0.255218
     8  H    0.255244
     9  H    0.255243
    10  H    0.255217
    11  H    0.255245
    12  H    0.255243
    13  H    0.289303
    14  H    0.289223
    15  H    0.289303
    16  H    0.289301
    17  H    0.289301
    18  H    0.289218
    19  Bq   0.000000
    20  Bq   0.000000
    21  Bq   0.000000
    22  Bq   0.000000
    23  Bq   0.000000
    24  Bq   0.000000
    25  Bq   0.000000
    26  Bq   0.000000
    27  Bq   0.000000
    28  Bq   0.000000
    29  Bq   0.000000
    30  Bq   0.000000
    31  Bq   0.000000
    32  Bq   0.000000
    33  Bq   0.000000
    34  Bq   0.000000
    35  Bq   0.000000
    36  Bq   0.000000
    37  Bq   0.000000
    38  Bq   0.000000
    39  Bq   0.000000
    40  Bq   0.000000
    41  Bq   0.000000
    42  Bq   0.000000
    43  Bq   0.000000
    44  Bq   0.000000
    45  Bq   0.000000
    46  Bq   0.000000
    47  Bq   0.000000
    48  Bq   0.000000
    49  Bq   0.000000
    50  Bq   0.000000
    51  Bq   0.000000
    52  Bq   0.000000
    53  Bq   0.000000
    54  Bq   0.000000
    55  Bq   0.000000
    56  Bq   0.000000
    57  Bq   0.000000
    58  Bq   0.000000
 Sum of Mulliken charges =   0.00000
 Mulliken charges with hydrogens summed into heavy atoms:
               1
     1  C   -0.000147
     2  C   -0.000170
     3  C    0.000333
     4  C   -0.000173
     5  C   -0.000144
     6  C    0.000302
    19  Bq   0.000000
    20  Bq   0.000000
    21  Bq   0.000000
    22  Bq   0.000000
    23  Bq   0.000000
    24  Bq   0.000000
    25  Bq   0.000000
    26  Bq   0.000000
    27  Bq   0.000000
    28  Bq   0.000000
    29  Bq   0.000000
    30  Bq   0.000000
    31  Bq   0.000000
    32  Bq   0.000000
    33  Bq   0.000000
    34  Bq   0.000000
    35  Bq   0.000000
    36  Bq   0.000000
    37  Bq   0.000000
    38  Bq   0.000000
    39  Bq   0.000000
    40  Bq   0.000000
    41  Bq   0.000000
    42  Bq   0.000000
    43  Bq   0.000000
    44  Bq   0.000000
    45  Bq   0.000000
    46  Bq   0.000000
    47  Bq   0.000000
    48  Bq   0.000000
    49  Bq   0.000000
    50  Bq   0.000000
    51  Bq   0.000000
    52  Bq   0.000000
    53  Bq   0.000000
    54  Bq   0.000000
    55  Bq   0.000000
    56  Bq   0.000000
    57  Bq   0.000000
    58  Bq   0.000000
 Electronic spatial extent (au):  <R**2>=            540.3390
 Charge=              0.0000 electrons
 Dipole moment (field-independent basis, Debye):
    X=              0.0000    Y=              0.0000    Z=             -3.0741  Tot=              3.0741
 Quadrupole moment (field-independent basis, Debye-Ang):
   XX=            -40.8726   YY=            -40.8730   ZZ=            -39.9851
   XY=              0.0000   XZ=              0.0000   YZ=              0.0000
 Traceless Quadrupole moment (field-independent basis, Debye-Ang):
   XX=             -0.2957   YY=             -0.2961   ZZ=              0.5918
   XY=              0.0000   XZ=              0.0000   YZ=              0.0000
 Octapole moment (field-independent basis, Debye-Ang**2):
  XXX=              0.0000  YYY=              0.0000  ZZZ=              9.2199  XYY=              0.0000
  XXY=              0.0000  XXZ=             -2.4521  XZZ=              0.0000  YZZ=              0.0000
  YYZ=             -2.4525  XYZ=              0.0000
 Hexadecapole moment (field-independent basis, Debye-Ang**3):
 XXXX=           -344.7375 YYYY=           -344.7406 ZZZZ=            -66.5105 XXXY=              0.0001
 XXXZ=              0.0000 YYYX=              0.0003 YYYZ=              0.0002 ZZZX=              0.0000
 ZZZY=              0.0001 XXYY=           -114.9135 XXZZ=            -74.1260 YYZZ=            -74.1266
 XXYZ=              0.0000 YYXZ=              0.0000 ZZXY=              0.0000
 N-N= 2.762031507894D+02 E-N=-1.099568390034D+03  KE= 2.378793660519D+02
 Orbital energies and kinetic energies (alpha):
                                 1                 2
   1         O               -10.131167         15.944501
   2         O               -10.130976         15.939670
   3         O               -10.130975         15.939669
   4         O               -10.130446         15.944199
   5         O               -10.130445         15.944198
   6         O               -10.130188         15.945593
   7         O                -0.927061          1.323027
   8         O                -0.820510          1.442734
   9         O                -0.820507          1.442743
  10         O                -0.655779          1.426134
  11         O                -0.655779          1.426144
  12         O                -0.552354          0.968008
  13         O                -0.504805          0.924794
  14         O                -0.504100          1.355506
  15         O                -0.447603          1.461652
  16         O                -0.429676          1.050363
  17         O                -0.429674          1.050387
  18         O                -0.422412          1.281165
  19         O                -0.422411          1.281181
  20         O                -0.343320          1.413972
  21         O                -0.343317          1.413978
  22         O                -0.263974          1.282057
  23         O                -0.263972          1.282062
  24         O                -0.153692          1.455946
  25         V                -0.029899          0.407964
  26         V                 0.016261          0.412359
  27         V                 0.018602          0.271097
  28         V                 0.018614          0.271161
  29         V                 0.043986          0.278883
  30         V                 0.043996          0.278901
  31         V                 0.051018          0.206295
  32         V                 0.059703          0.290955
  33         V                 0.059719          0.291049
  34         V                 0.079046          0.276231
  35         V                 0.101733          0.239879
  36         V                 0.104141          0.446539
  37         V                 0.104216          0.446925
  38         V                 0.112505          0.241188
  39         V                 0.112515          0.241148
  40         V                 0.143878          0.301466
  41         V                 0.143924          0.301581
  42         V                 0.156888          0.273729
  43         V                 0.158145          0.735263
  44         V                 0.192170          0.563993
  45         V                 0.192913          0.362768
  46         V                 0.193019          0.361115
  47         V                 0.196987          0.598575
  48         V                 0.196994          0.599053
  49         V                 0.207357          0.541125
  50         V                 0.207359          0.541549
  51         V                 0.210167          1.172087
  52         V                 0.210181          1.172039
  53         V                 0.224478          0.796493
  54         V                 0.230900          0.679365
  55         V                 0.231051          0.679013
  56         V                 0.266415          0.313917
  57         V                 0.267374          0.707811
  58         V                 0.307665          1.220897
  59         V                 0.307676          1.221019
  60         V                 0.320393          1.352843
  61         V                 0.320396          1.352892
  62         V                 0.336605          0.873187
  63         V                 0.336661          0.873163
  64         V                 0.363959          0.850713
  65         V                 0.414955          0.911882
  66         V                 0.420731          0.967644
  67         V                 0.420748          0.967642
  68         V                 0.439173          1.600232
  69         V                 0.451342          1.056557
  70         V                 0.464418          1.062987
  71         V                 0.464435          1.062915
  72         V                 0.470407          1.248650
  73         V                 0.558040          1.797460
  74         V                 0.625321          1.417362
  75         V                 0.659684          1.743605
  76         V                 0.659685          1.743610
  77         V                 0.669219          1.664492
  78         V                 0.669240          1.664551
  79         V                 0.675021          1.664058
  80         V                 0.703016          2.242094
  81         V                 0.703030          2.242095
  82         V                 0.710505          1.830339
  83         V                 0.722458          1.707622
  84         V                 0.722464          1.707973
  85         V                 0.757222          2.113994
  86         V                 0.757247          2.113789
  87         V                 0.799615          2.894770
  88         V                 0.800893          2.113214
  89         V                 0.817394          1.770756
  90         V                 0.817395          1.770596
  91         V                 0.840073          2.519974
  92         V                 0.840080          2.519971
  93         V                 0.885689          2.610760
  94         V                 0.898277          2.740357
  95         V                 0.905183          1.312482
  96         V                 0.905214          1.312478
  97         V                 0.973817          1.973174
  98         V                 1.014806          1.957223
  99         V                 1.034474          1.536003
 100         V                 1.106111          2.168698
 101         V                 1.106123          2.168667
 102         V                 1.134777          2.227297
 103         V                 1.134793          2.227213
 104         V                 1.214660          2.420072
 105         V                 1.214747          2.420112
 106         V                 1.232415          2.306248
 107         V                 1.232423          2.306252
 108         V                 1.359231          2.728899
 109         V                 1.410826          2.520898
 110         V                 1.497760          2.531765
 111         V                 1.501177          2.634870
 112         V                 1.501200          2.634874
 113         V                 1.565259          2.651082
 114         V                 1.665667          2.831731
 115         V                 1.665676          2.831710
 116         V                 1.727064          3.019816
 117         V                 1.727075          3.019793
 118         V                 1.853934          3.005881
 119         V                 1.853941          3.005919
 120         V                 1.899351          3.075736
 121         V                 1.899362          3.075742
 122         V                 1.907337          3.395711
 123         V                 1.945689          3.777647
 124         V                 1.945694          3.777663
 125         V                 2.026239          3.211014
 126         V                 2.146379          3.734814
 127         V                 2.146382          3.734811
 128         V                 2.273239          4.230398
 129         V                 2.273240          4.230404
 130         V                 2.288938          3.394740
 131         V                 2.448788          4.504975
 132         V                 2.449025          4.918013
 133         V                 2.449043          4.918003
 134         V                 2.477413          4.225793
 135         V                 2.477968          4.624298
 136         V                 2.578973          4.972459
 137         V                 2.663307          5.285461
 138         V                 2.663321          5.285409
 139         V                 2.746022          5.215193
 140         V                 2.746024          5.215150
 141         V                 2.863859          6.209764
 142         V                 2.896207          5.296290
 143         V                 2.896245          5.296183
 144         V                 2.988903          5.352708
 145         V                 3.097868          7.183107
 146         V                 3.118710          5.995619
 147         V                 3.118712          5.995603
 148         V                 3.263173          6.702472
 149         V                 3.306293          6.869956
 150         V                 3.306295          6.869939
 151         V                 3.329727          6.709759
 152         V                 3.329740          6.709779
 153         V                 3.575744          5.522981
 154         V                 3.583266          6.497324
 155         V                 3.583267          6.497315
 156         V                 3.742948          7.040592
 157         V                 3.742954          7.040595
 158         V                 3.799724          7.235910
 159         V                 4.029063          7.469662
 160         V                 4.029065          7.469648
 161         V                 4.152098          6.989447
 162         V                 4.748245          7.831686
 163         V                23.356463         60.126670
 164         V                24.018376         60.387833
 165         V                24.018384         60.387838
 166         V                24.124733         60.401181
 167         V                24.124740         60.401183
 168         V                24.225765         60.422027
 Total kinetic energy from orbitals= 2.378793660519D+02
 1\1\GINC-HOGWARTS\SP\RB3LYP\6-311+G(d)\C6H12\ANUJA\05-May-2014\0\\# B3
 LYP/6-311+G* NMR=GIAO POP=FULL SCF(MAXCYCLE=512)\\--------------------
 -------------------------- # Center 1\\0,1\C,0,-1.20726,0.69701,0.\C,0
 ,-1.20726,-0.69701,0.\C,0,0.,-1.39402,0.\C,0,1.20726,-0.69701,0.\C,0,1
 .20726,0.69701,0.\C,0,0.,1.39402,0.\H,0,0.,2.47959,0.\H,0,2.14738,1.23
 98,0.\H,0,2.14739,-1.23979,0.\H,0,0.,-2.47959,0.\H,0,-2.14738,-1.2398,
 0.\H,0,-2.14739,1.23979,0.\H,0,-1.28274,0.74059,-0.9962\H,0,0.,-1.4811
 8,-0.99619\H,0,1.28274,0.74059,-0.9962\H,0,-1.28274,-0.74059,-0.9962\H
 ,0,1.28274,-0.74059,-0.9962\H,0,0.,1.48118,-0.9962\Bq,0,0.,0.,0.\Bq,0,
 0.,0.,0.1\Bq,0,0.,0.,0.2\Bq,0,0.,0.,0.3\Bq,0,0.,0.,0.4\Bq,0,0.,0.,0.5\
 Bq,0,0.,0.,0.6\Bq,0,0.,0.,0.7\Bq,0,0.,0.,0.8\Bq,0,0.,0.,0.9\Bq,0,0.,0.
 ,1.\Bq,0,0.,0.,1.1\Bq,0,0.,0.,1.2\Bq,0,0.,0.,1.3\Bq,0,0.,0.,1.4\Bq,0,0
 .,0.,1.5\Bq,0,0.,0.,1.6\Bq,0,0.,0.,1.7\Bq,0,0.,0.,1.8\Bq,0,0.,0.,1.9\B
 q,0,0.,0.,2.\Bq,0,0.,0.,2.1\Bq,0,0.,0.,2.2\Bq,0,0.,0.,2.3\Bq,0,0.,0.,2
 .4\Bq,0,0.,0.,2.5\Bq,0,0.,0.,2.6\Bq,0,0.,0.,2.7\Bq,0,0.,0.,2.8\Bq,0,0.
 ,0.,2.9\Bq,0,0.,0.,3.\Bq,0,0.,0.,3.1\Bq,0,0.,0.,3.2\Bq,0,0.,0.,3.3\Bq,
 0,0.,0.,3.4\Bq,0,0.,0.,3.5\Bq,0,0.,0.,3.6\Bq,0,0.,0.,3.7\Bq,0,0.,0.,3.
 8\Bq,0,0.,0.,3.9\\Version=EM64L-G09RevD.01\HF=-235.3832057\RMSD=5.811e
 -09\Dipole=0.,-0.000001,-1.2094394\Quadrupole=-0.2198404,-0.2201149,0.
 4399553,0.0000304,0.,0.0000185\PG=C01 [X(C6H12)]\\@


       THE DEATH-KNELL OF THE ATOM

 SO THE ATOMS IN TURN, WE NOW CLEARLY DISCERN,
 FLY TO BITS WITH THE UTMOST FACILITY;
 THEY WEND ON THEIR WAY, AND, IN SPLITTING, DISPLAY
 AN ABSOLUTE LACK OF STABILITY.

          SIR WM. RAMSAY, 1905
 Job cpu time:       0 days  0 hours  3 minutes  4.6 seconds.
 File lengths (MBytes):  RWF=     14 Int=      0 D2E=      0 Chk=      3 Scr=      1
 Normal termination of Gaussian 09 at Mon May  5 18:18:31 2014.
