 Entering Gaussian System, Link 0=/usr/local/g09/g09
 Input=/home/anuja/input/benz-center1.in
 Output=/home/anuja/output/benz-center1.log
 Initial command:
 /usr/local/g09-D.01/g09/l1.exe /gtmp/Gau-8688.inp -scrdir=/gtmp/
 Entering Link 1 = /usr/local/g09-D.01/g09/l1.exe PID=      8690.
  
 Copyright (c) 1988,1990,1992,1993,1995,1998,2003,2009,2013,
            Gaussian, Inc.  All Rights Reserved.
  
 This is part of the Gaussian(R) 09 program.  It is based on
 the Gaussian(R) 03 system (copyright 2003, Gaussian, Inc.),
 the Gaussian(R) 98 system (copyright 1998, Gaussian, Inc.),
 the Gaussian(R) 94 system (copyright 1995, Gaussian, Inc.),
 the Gaussian 92(TM) system (copyright 1992, Gaussian, Inc.),
 the Gaussian 90(TM) system (copyright 1990, Gaussian, Inc.),
 the Gaussian 88(TM) system (copyright 1988, Gaussian, Inc.),
 the Gaussian 86(TM) system (copyright 1986, Carnegie Mellon
 University), and the Gaussian 82(TM) system (copyright 1983,
 Carnegie Mellon University). Gaussian is a federally registered
 trademark of Gaussian, Inc.
  
 This software contains proprietary and confidential information,
 including trade secrets, belonging to Gaussian, Inc.
  
 This software is provided under written license and may be
 used, copied, transmitted, or stored only in accord with that
 written license.
  
 The following legend is applicable only to US Government
 contracts under FAR:
  
                    RESTRICTED RIGHTS LEGEND
  
 Use, reproduction and disclosure by the US Government is
 subject to restrictions as set forth in subparagraphs (a)
 and (c) of the Commercial Computer Software - Restricted
 Rights clause in FAR 52.227-19.
  
 Gaussian, Inc.
 340 Quinnipiac St., Bldg. 40, Wallingford CT 06492
  
  
 ---------------------------------------------------------------
 Warning -- This program may not be used in any manner that
 competes with the business of Gaussian, Inc. or will provide
 assistance to any competitor of Gaussian, Inc.  The licensee
 of this program is prohibited from giving any competitor of
 Gaussian, Inc. access to this program.  By using this program,
 the user acknowledges that Gaussian, Inc. is engaged in the
 business of creating and licensing software in the field of
 computational chemistry and represents and warrants to the
 licensee that it is not a competitor of Gaussian, Inc. and that
 it will not use this program in any manner prohibited above.
 ---------------------------------------------------------------
  

 Cite this work as:
 Gaussian 09, Revision D.01,
 M. J. Frisch, G. W. Trucks, H. B. Schlegel, G. E. Scuseria, 
 M. A. Robb, J. R. Cheeseman, G. Scalmani, V. Barone, B. Mennucci, 
 G. A. Petersson, H. Nakatsuji, M. Caricato, X. Li, H. P. Hratchian, 
 A. F. Izmaylov, J. Bloino, G. Zheng, J. L. Sonnenberg, M. Hada, 
 M. Ehara, K. Toyota, R. Fukuda, J. Hasegawa, M. Ishida, T. Nakajima, 
 Y. Honda, O. Kitao, H. Nakai, T. Vreven, J. A. Montgomery, Jr., 
 J. E. Peralta, F. Ogliaro, M. Bearpark, J. J. Heyd, E. Brothers, 
 K. N. Kudin, V. N. Staroverov, T. Keith, R. Kobayashi, J. Normand, 
 K. Raghavachari, A. Rendell, J. C. Burant, S. S. Iyengar, J. Tomasi, 
 M. Cossi, N. Rega, J. M. Millam, M. Klene, J. E. Knox, J. B. Cross, 
 V. Bakken, C. Adamo, J. Jaramillo, R. Gomperts, R. E. Stratmann, 
 O. Yazyev, A. J. Austin, R. Cammi, C. Pomelli, J. W. Ochterski, 
 R. L. Martin, K. Morokuma, V. G. Zakrzewski, G. A. Voth, 
 P. Salvador, J. J. Dannenberg, S. Dapprich, A. D. Daniels, 
 O. Farkas, J. B. Foresman, J. V. Ortiz, J. Cioslowski, 
 and D. J. Fox, Gaussian, Inc., Wallingford CT, 2013.
 
 ******************************************
 Gaussian 09:  EM64L-G09RevD.01 24-Apr-2013
                 5-May-2014 
 ******************************************
 %NPROC=6
 Will use up to    6 processors via shared memory.
 %MEM=6024MB
 ----------------------------------------------------
 # B3LYP/6-311+G* NMR=GIAO POP=FULL SCF(MAXCYCLE=512)
 ----------------------------------------------------
 1/38=1/1;
 2/12=2,17=6,18=5,40=1/2;
 3/5=4,6=6,7=11,11=2,16=1,25=1,30=1,74=-5/1,2,8,3;
 4//1;
 5/5=2,7=512,38=5/2;
 8/6=1,10=90,11=11/1;
 10/13=100,45=16/2;
 6/7=3,28=1/1;
 99/9=1/99;
 ----------------------------------------
 ----------------------------- # Center 1
 ----------------------------------------
 Symbolic Z-matrix:
 Charge =  0 Multiplicity = 1
 6                     1.39402   0.        0. 
 6                    -0.69701   1.20726   0. 
 6                    -0.69701  -1.20726   0. 
 6                     0.69701   1.20726   0. 
 6                    -1.39402   0.        0. 
 6                     0.69701  -1.20726   0. 
 1                     2.47959   0.        0. 
 1                     1.23979   2.14739   0. 
 1                    -1.23979   2.14739   0. 
 1                    -2.47959   0.        0. 
 1                    -1.23979  -2.14739   0. 
 1                     1.23979  -2.14739   0. 
 bq                    0.        0.        0. 
 bq                    0.        0.        0.1 
 bq                    0.        0.        0.2 
 bq                    0.        0.        0.3 
 bq                    0.        0.        0.4 
 bq                    0.        0.        0.5 
 bq                    0.        0.        0.6 
 bq                    0.        0.        0.7 
 bq                    0.        0.        0.8 
 bq                    0.        0.        0.9 
 bq                    0.        0.        1. 
 bq                    0.        0.        1.1 
 bq                    0.        0.        1.2 
 bq                    0.        0.        1.3 
 bq                    0.        0.        1.4 
 bq                    0.        0.        1.5 
 bq                    0.        0.        1.6 
 bq                    0.        0.        1.7 
 bq                    0.        0.        1.8 
 bq                    0.        0.        1.9 
 bq                    0.        0.        2. 
 bq                    0.        0.        2.1 
 bq                    0.        0.        2.2 
 bq                    0.        0.        2.3 
 bq                    0.        0.        2.4 
 bq                    0.        0.        2.5 
 bq                    0.        0.        2.6 
 bq                    0.        0.        2.7 
 bq                    0.        0.        2.8 
 bq                    0.        0.        2.9 
 bq                    0.        0.        3. 
 bq                    0.        0.        3.1 
 bq                    0.        0.        3.2 
 bq                    0.        0.        3.3 
 bq                    0.        0.        3.4 
 bq                    0.        0.        3.5 
 bq                    0.        0.        3.6 
 bq                    0.        0.        3.7 
 bq                    0.        0.        3.8 
 bq                    0.        0.        3.9 
 
 Symmetry turned off:
 Cannot cope with ghost atoms or with translation vectors.
 Stoichiometry    C6H6
 Framework group  C1[X(C6H6)]
 NUMDOF-- NAT=    12 NAtoms=    52
 Deg. of freedom     0
 Full point group                 C1      NOp   1
                          Input orientation:                          
 ---------------------------------------------------------------------
 Center     Atomic      Atomic             Coordinates (Angstroms)
 Number     Number       Type             X           Y           Z
 ---------------------------------------------------------------------
      1          6           0        1.394020    0.000000    0.000000
      2          6           0       -0.697010    1.207260    0.000000
      3          6           0       -0.697010   -1.207260    0.000000
      4          6           0        0.697010    1.207260    0.000000
      5          6           0       -1.394020    0.000000    0.000000
      6          6           0        0.697010   -1.207260    0.000000
      7          1           0        2.479590    0.000000    0.000000
      8          1           0        1.239790    2.147390    0.000000
      9          1           0       -1.239790    2.147390    0.000000
     10          1           0       -2.479590    0.000000    0.000000
     11          1           0       -1.239790   -2.147390    0.000000
     12          1           0        1.239790   -2.147390    0.000000
     13          0           0        0.000000    0.000000    0.000000
     14          0           0        0.000000    0.000000    0.100000
     15          0           0        0.000000    0.000000    0.200000
     16          0           0        0.000000    0.000000    0.300000
     17          0           0        0.000000    0.000000    0.400000
     18          0           0        0.000000    0.000000    0.500000
     19          0           0        0.000000    0.000000    0.600000
     20          0           0        0.000000    0.000000    0.700000
     21          0           0        0.000000    0.000000    0.800000
     22          0           0        0.000000    0.000000    0.900000
     23          0           0        0.000000    0.000000    1.000000
     24          0           0        0.000000    0.000000    1.100000
     25          0           0        0.000000    0.000000    1.200000
     26          0           0        0.000000    0.000000    1.300000
     27          0           0        0.000000    0.000000    1.400000
     28          0           0        0.000000    0.000000    1.500000
     29          0           0        0.000000    0.000000    1.600000
     30          0           0        0.000000    0.000000    1.700000
     31          0           0        0.000000    0.000000    1.800000
     32          0           0        0.000000    0.000000    1.900000
     33          0           0        0.000000    0.000000    2.000000
     34          0           0        0.000000    0.000000    2.100000
     35          0           0        0.000000    0.000000    2.200000
     36          0           0        0.000000    0.000000    2.300000
     37          0           0        0.000000    0.000000    2.400000
     38          0           0        0.000000    0.000000    2.500000
     39          0           0        0.000000    0.000000    2.600000
     40          0           0        0.000000    0.000000    2.700000
     41          0           0        0.000000    0.000000    2.800000
     42          0           0        0.000000    0.000000    2.900000
     43          0           0        0.000000    0.000000    3.000000
     44          0           0        0.000000    0.000000    3.100000
     45          0           0        0.000000    0.000000    3.200000
     46          0           0        0.000000    0.000000    3.300000
     47          0           0        0.000000    0.000000    3.400000
     48          0           0        0.000000    0.000000    3.500000
     49          0           0        0.000000    0.000000    3.600000
     50          0           0        0.000000    0.000000    3.700000
     51          0           0        0.000000    0.000000    3.800000
     52          0           0        0.000000    0.000000    3.900000
 ---------------------------------------------------------------------
 Rotational constants (GHZ):      5.7074090      5.7073791      2.8536970
 Standard basis: 6-311+G(d) (5D, 7F)
 Warning:  center  13 has no basis functions!
 Warning:  center  14 has no basis functions!
 Warning:  center  15 has no basis functions!
 Warning:  center  16 has no basis functions!
 Warning:  center  17 has no basis functions!
 Warning:  center  18 has no basis functions!
 Warning:  center  19 has no basis functions!
 Warning:  center  20 has no basis functions!
 Warning:  center  21 has no basis functions!
 Warning:  center  22 has no basis functions!
 Warning:  center  23 has no basis functions!
 Warning:  center  24 has no basis functions!
 Warning:  center  25 has no basis functions!
 Warning:  center  26 has no basis functions!
 Warning:  center  27 has no basis functions!
 Warning:  center  28 has no basis functions!
 Warning:  center  29 has no basis functions!
 Warning:  center  30 has no basis functions!
 Warning:  center  31 has no basis functions!
 Warning:  center  32 has no basis functions!
 Warning:  center  33 has no basis functions!
 Warning:  center  34 has no basis functions!
 Warning:  center  35 has no basis functions!
 Warning:  center  36 has no basis functions!
 Warning:  center  37 has no basis functions!
 Warning:  center  38 has no basis functions!
 Warning:  center  39 has no basis functions!
 Warning:  center  40 has no basis functions!
 Warning:  center  41 has no basis functions!
 Warning:  center  42 has no basis functions!
 Warning:  center  43 has no basis functions!
 Warning:  center  44 has no basis functions!
 Warning:  center  45 has no basis functions!
 Warning:  center  46 has no basis functions!
 Warning:  center  47 has no basis functions!
 Warning:  center  48 has no basis functions!
 Warning:  center  49 has no basis functions!
 Warning:  center  50 has no basis functions!
 Warning:  center  51 has no basis functions!
 Warning:  center  52 has no basis functions!
   150 basis functions,   246 primitive gaussians,   156 cartesian basis functions
    21 alpha electrons       21 beta electrons
       nuclear repulsion energy       203.5485704919 Hartrees.
 NAtoms=   52 NActive=   52 NUniq=   52 SFac= 1.00D+00 NAtFMM=   60 NAOKFM=F Big=F
 Integral buffers will be    131072 words long.
 Raffenetti 2 integral format.
 Two-electron integral symmetry is turned off.
 One-electron integrals computed using PRISM.
 NBasis=   150 RedAO= T EigKep=  4.23D-06  NBF=   150
 NBsUse=   150 1.00D-06 EigRej= -1.00D+00 NBFU=   150
 ExpMin= 4.38D-02 ExpMax= 4.56D+03 ExpMxC= 6.82D+02 IAcc=2 IRadAn=         4 AccDes= 0.00D+00
 Harris functional with IExCor=  402 and IRadAn=       4 diagonalized for initial guess.
 HarFok:  IExCor=  402 AccDes= 0.00D+00 IRadAn=         4 IDoV= 1 UseB2=F ITyADJ=14
 ICtDFT=  3500011 ScaDFX=  1.000000  1.000000  1.000000  1.000000
 FoFCou: FMM=F IPFlag=           0 FMFlag=      100000 FMFlg1=           0
         NFxFlg=           0 DoJE=T BraDBF=F KetDBF=T FulRan=T
         wScrn=  0.000000 ICntrl=     500 IOpCl=  0 I1Cent=   200000004 NGrid=           0
         NMat0=    1 NMatS0=      1 NMatT0=    0 NMatD0=    1 NMtDS0=    0 NMtDT0=    0
 Symmetry not used in FoFCou.
 Keep R1 ints in memory in canonical form, NReq=66409557.
 Requested convergence on RMS density matrix=1.00D-08 within 512 cycles.
 Requested convergence on MAX density matrix=1.00D-06.
 Requested convergence on             energy=1.00D-06.
 No special actions if energy rises.
 SCF Done:  E(RB3LYP) =  -232.300702277     A.U. after    9 cycles
            NFock=  9  Conv=0.27D-08     -V/T= 2.0045
 DoSCS=F DFT=T ScalE2(SS,OS)=  1.000000  1.000000
 Range of M.O.s used for correlation:     1   150
 NBasis=   150 NAE=    21 NBE=    21 NFC=     0 NFV=     0
 NROrb=    150 NOA=    21 NOB=    21 NVA=   129 NVB=   129

 **** Warning!!: The largest alpha MO coefficient is  0.13932335D+03

          Differentiating once with respect to magnetic field using GIAOs.
          Electric field/nuclear overlap derivatives assumed to be zero.
 Keep R3 ints in memory in canonical form, NReq=66178598.
 FoFJK:  IHMeth= 1 ICntrl=    6127 DoSepK=F KAlg= 0 I1Cent=   0 FoldK=F
 IRaf=         1 NMat=   1 IRICut=       1 DoRegI=T DoRafI=F ISym2E= 0.
          There are     3 degrees of freedom in the 1st order CPHF.  IDoFFX=0 NUNeed=     3.
      3 vectors produced by pass  0 Test12= 9.03D-14 3.33D-08 XBig12= 5.48D+00 8.60D-01.
 AX will form     3 AO Fock derivatives at one time.
      3 vectors produced by pass  1 Test12= 9.03D-14 3.33D-08 XBig12= 6.92D-03 3.05D-02.
      3 vectors produced by pass  2 Test12= 9.03D-14 3.33D-08 XBig12= 5.27D-06 7.13D-04.
      3 vectors produced by pass  3 Test12= 9.03D-14 3.33D-08 XBig12= 5.37D-09 3.65D-05.
      3 vectors produced by pass  4 Test12= 9.03D-14 3.33D-08 XBig12= 1.36D-11 1.86D-06.
      2 vectors produced by pass  5 Test12= 9.03D-14 3.33D-08 XBig12= 1.69D-14 4.65D-08.
 InvSVY:  IOpt=1 It=  1 EMax= 1.52D-17
 Solved reduced A of dimension    17 with     3 vectors.
 Calculating GIAO nuclear magnetic shielding tensors.
 SCF GIAO Magnetic shielding tensor (ppm):
      1  C    Isotropic =    50.7311   Anisotropy =   184.0784
   XX=   -62.8246   YX=     0.0000   ZX=     0.0000
   XY=     0.0000   YY=    41.5678   ZY=     0.0000
   XZ=     0.0000   YZ=     0.0000   ZZ=   173.4500
   Eigenvalues:   -62.8246    41.5678   173.4500
      2  C    Isotropic =    50.6678   Anisotropy =   184.0782
   XX=    15.5412   YX=    45.1848   ZX=     0.0000
   XY=    45.4064   YY=   -36.9244   ZY=     0.0000
   XZ=     0.0000   YZ=     0.0000   ZZ=   173.3866
   Eigenvalues:   -63.0353    41.6520   173.3866
      3  C    Isotropic =    50.6678   Anisotropy =   184.0782
   XX=    15.5412   YX=   -45.1848   ZX=     0.0000
   XY=   -45.4064   YY=   -36.9244   ZY=     0.0000
   XZ=     0.0000   YZ=     0.0000   ZZ=   173.3866
   Eigenvalues:   -63.0353    41.6520   173.3866
      4  C    Isotropic =    50.6678   Anisotropy =   184.0782
   XX=    15.5412   YX=   -45.1848   ZX=     0.0000
   XY=   -45.4064   YY=   -36.9244   ZY=     0.0000
   XZ=     0.0000   YZ=     0.0000   ZZ=   173.3866
   Eigenvalues:   -63.0353    41.6520   173.3866
      5  C    Isotropic =    50.7311   Anisotropy =   184.0784
   XX=   -62.8246   YX=     0.0000   ZX=     0.0000
   XY=     0.0000   YY=    41.5678   ZY=     0.0000
   XZ=     0.0000   YZ=     0.0000   ZZ=   173.4500
   Eigenvalues:   -62.8246    41.5678   173.4500
      6  C    Isotropic =    50.6678   Anisotropy =   184.0782
   XX=    15.5412   YX=    45.1848   ZX=     0.0000
   XY=    45.4064   YY=   -36.9244   ZY=     0.0000
   XZ=     0.0000   YZ=     0.0000   ZZ=   173.3866
   Eigenvalues:   -63.0353    41.6520   173.3866
      7  H    Isotropic =    24.7997   Anisotropy =     4.8768
   XX=    24.6845   YX=     0.0000   ZX=     0.0000
   XY=     0.0000   YY=    28.0509   ZY=     0.0000
   XZ=     0.0000   YZ=     0.0000   ZZ=    21.6637
   Eigenvalues:    21.6637    24.6845    28.0509
      8  H    Isotropic =    24.7893   Anisotropy =     4.8858
   XX=    27.2135   YX=    -1.4501   ZX=     0.0000
   XY=    -1.4693   YY=    25.4886   ZY=     0.0000
   XZ=     0.0000   YZ=     0.0000   ZZ=    21.6659
   Eigenvalues:    21.6659    24.6556    28.0465
      9  H    Isotropic =    24.7893   Anisotropy =     4.8858
   XX=    27.2135   YX=     1.4501   ZX=     0.0000
   XY=     1.4693   YY=    25.4886   ZY=     0.0000
   XZ=     0.0000   YZ=     0.0000   ZZ=    21.6659
   Eigenvalues:    21.6659    24.6556    28.0465
     10  H    Isotropic =    24.7997   Anisotropy =     4.8768
   XX=    24.6845   YX=     0.0000   ZX=     0.0000
   XY=     0.0000   YY=    28.0509   ZY=     0.0000
   XZ=     0.0000   YZ=     0.0000   ZZ=    21.6637
   Eigenvalues:    21.6637    24.6845    28.0509
     11  H    Isotropic =    24.7893   Anisotropy =     4.8858
   XX=    27.2135   YX=    -1.4501   ZX=     0.0000
   XY=    -1.4693   YY=    25.4886   ZY=     0.0000
   XZ=     0.0000   YZ=     0.0000   ZZ=    21.6659
   Eigenvalues:    21.6659    24.6556    28.0465
     12  H    Isotropic =    24.7893   Anisotropy =     4.8858
   XX=    27.2135   YX=     1.4501   ZX=     0.0000
   XY=     1.4693   YY=    25.4886   ZY=     0.0000
   XZ=     0.0000   YZ=     0.0000   ZZ=    21.6659
   Eigenvalues:    21.6659    24.6556    28.0465
     13  Bq   Isotropic =     7.9083   Anisotropy =     9.2582
   XX=     4.8192   YX=     0.0000   ZX=     0.0000
   XY=     0.0000   YY=     4.8253   ZY=     0.0000
   XZ=     0.0000   YZ=     0.0000   ZZ=    14.0804
   Eigenvalues:     4.8192     4.8253    14.0804
     14  Bq   Isotropic =     8.0163   Anisotropy =     9.7945
   XX=     4.7484   YX=     0.0000   ZX=     0.0000
   XY=     0.0000   YY=     4.7546   ZY=     0.0000
   XZ=     0.0000   YZ=     0.0000   ZZ=    14.5460
   Eigenvalues:     4.7484     4.7546    14.5460
     15  Bq   Isotropic =     8.3199   Anisotropy =    11.3267
   XX=     4.5411   YX=     0.0000   ZX=     0.0000
   XY=     0.0000   YY=     4.5476   ZY=     0.0000
   XZ=     0.0000   YZ=     0.0000   ZZ=    15.8711
   Eigenvalues:     4.5411     4.5476    15.8711
     16  Bq   Isotropic =     8.7630   Anisotropy =    13.6419
   XX=     4.2122   YX=     0.0000   ZX=     0.0000
   XY=     0.0000   YY=     4.2193   ZY=     0.0000
   XZ=     0.0000   YZ=     0.0000   ZZ=    17.8577
   Eigenvalues:     4.2122     4.2193    17.8577
     17  Bq   Isotropic =     9.2678   Anisotropy =    16.4378
   XX=     3.7846   YX=     0.0000   ZX=     0.0000
   XY=     0.0000   YY=     3.7924   ZY=     0.0000
   XZ=     0.0000   YZ=     0.0000   ZZ=    20.2264
   Eigenvalues:     3.7846     3.7924    20.2264
     18  Bq   Isotropic =     9.7520   Anisotropy =    19.3830
   XX=     3.2866   YX=     0.0000   ZX=     0.0000
   XY=     0.0000   YY=     3.2953   ZY=     0.0000
   XZ=     0.0000   YZ=     0.0000   ZZ=    22.6739
   Eigenvalues:     3.2866     3.2953    22.6739
     19  Bq   Isotropic =    10.1442   Anisotropy =    22.1743
   XX=     2.7478   YX=     0.0000   ZX=     0.0000
   XY=     0.0000   YY=     2.7577   ZY=     0.0000
   XZ=     0.0000   YZ=     0.0000   ZZ=    24.9271
   Eigenvalues:     2.7478     2.7577    24.9271
     20  Bq   Isotropic =    10.3943   Anisotropy =    24.5774
   XX=     2.1963   YX=     0.0000   ZX=     0.0000
   XY=     0.0000   YY=     2.2073   ZY=     0.0000
   XZ=     0.0000   YZ=     0.0000   ZZ=    26.7792
   Eigenvalues:     2.1963     2.2073    26.7792
     21  Bq   Isotropic =    10.4764   Anisotropy =    26.4445
   XX=     1.6554   YX=     0.0000   ZX=     0.0000
   XY=     0.0000   YY=     1.6676   ZY=     0.0000
   XZ=     0.0000   YZ=     0.0000   ZZ=    28.1060
   Eigenvalues:     1.6554     1.6676    28.1060
     22  Bq   Isotropic =    10.3871   Anisotropy =    27.7130
   XX=     1.1428   YX=     0.0000   ZX=     0.0000
   XY=     0.0000   YY=     1.1562   ZY=     0.0000
   XZ=     0.0000   YZ=     0.0000   ZZ=    28.8625
   Eigenvalues:     1.1428     1.1562    28.8625
     23  Bq   Isotropic =    10.1407   Anisotropy =    28.3900
   XX=     0.6701   YX=     0.0000   ZX=     0.0000
   XY=     0.0000   YY=     0.6846   ZY=     0.0000
   XZ=     0.0000   YZ=     0.0000   ZZ=    29.0674
   Eigenvalues:     0.6701     0.6846    29.0674
     24  Bq   Isotropic =     9.7624   Anisotropy =    28.5305
   XX=     0.2445   YX=     0.0000   ZX=     0.0000
   XY=     0.0000   YY=     0.2600   ZY=     0.0000
   XZ=     0.0000   YZ=     0.0000   ZZ=    28.7827
   Eigenvalues:     0.2445     0.2600    28.7827
     25  Bq   Isotropic =     9.2828   Anisotropy =    28.2167
   XX=    -0.1309   YX=     0.0000   ZX=     0.0000
   XY=     0.0000   YY=    -0.1146   ZY=     0.0000
   XZ=     0.0000   YZ=     0.0000   ZZ=    28.0939
   Eigenvalues:    -0.1309    -0.1146    28.0939
     26  Bq   Isotropic =     8.7334   Anisotropy =    27.5406
   XX=    -0.4553   YX=     0.0000   ZX=     0.0000
   XY=     0.0000   YY=    -0.4384   ZY=     0.0000
   XZ=     0.0000   YZ=     0.0000   ZZ=    27.0938
   Eigenvalues:    -0.4553    -0.4384    27.0938
     27  Bq   Isotropic =     8.1431   Anisotropy =    26.5921
   XX=    -0.7296   YX=     0.0000   ZX=     0.0000
   XY=     0.0000   YY=    -0.7123   ZY=     0.0000
   XZ=     0.0000   YZ=     0.0000   ZZ=    25.8712
   Eigenvalues:    -0.7296    -0.7123    25.8712
     28  Bq   Isotropic =     7.5368   Anisotropy =    25.4518
   XX=    -0.9559   YX=     0.0000   ZX=     0.0000
   XY=     0.0000   YY=    -0.9384   ZY=     0.0000
   XZ=     0.0000   YZ=     0.0000   ZZ=    24.5047
   Eigenvalues:    -0.9559    -0.9384    24.5047
     29  Bq   Isotropic =     6.9343   Anisotropy =    24.1880
   XX=    -1.1372   YX=     0.0000   ZX=     0.0000
   XY=     0.0000   YY=    -1.1196   ZY=     0.0000
   XZ=     0.0000   YZ=     0.0000   ZZ=    23.0596
   Eigenvalues:    -1.1372    -1.1196    23.0596
     30  Bq   Isotropic =     6.3505   Anisotropy =    22.8561
   XX=    -1.2769   YX=     0.0000   ZX=     0.0000
   XY=     0.0000   YY=    -1.2594   ZY=     0.0000
   XZ=     0.0000   YZ=     0.0000   ZZ=    21.5879
   Eigenvalues:    -1.2769    -1.2594    21.5879
     31  Bq   Isotropic =     5.7959   Anisotropy =    21.4991
   XX=    -1.3791   YX=     0.0000   ZX=     0.0000
   XY=     0.0000   YY=    -1.3618   ZY=     0.0000
   XZ=     0.0000   YZ=     0.0000   ZZ=    20.1286
   Eigenvalues:    -1.3791    -1.3618    20.1286
     32  Bq   Isotropic =     5.2771   Anisotropy =    20.1497
   XX=    -1.4479   YX=     0.0000   ZX=     0.0000
   XY=     0.0000   YY=    -1.4311   ZY=     0.0000
   XZ=     0.0000   YZ=     0.0000   ZZ=    18.7102
   Eigenvalues:    -1.4479    -1.4311    18.7102
     33  Bq   Isotropic =     4.7975   Anisotropy =    18.8319
   XX=    -1.4880   YX=     0.0000   ZX=     0.0000
   XY=     0.0000   YY=    -1.4716   ZY=     0.0000
   XZ=     0.0000   YZ=     0.0000   ZZ=    17.3521
   Eigenvalues:    -1.4880    -1.4716    17.3521
     34  Bq   Isotropic =     4.3584   Anisotropy =    17.5623
   XX=    -1.5036   YX=     0.0000   ZX=     0.0000
   XY=     0.0000   YY=    -1.4878   ZY=     0.0000
   XZ=     0.0000   YZ=     0.0000   ZZ=    16.0666
   Eigenvalues:    -1.5036    -1.4878    16.0666
     35  Bq   Isotropic =     3.9592   Anisotropy =    16.3523
   XX=    -1.4991   YX=     0.0000   ZX=     0.0000
   XY=     0.0000   YY=    -1.4839   ZY=     0.0000
   XZ=     0.0000   YZ=     0.0000   ZZ=    14.8607
   Eigenvalues:    -1.4991    -1.4839    14.8607
     36  Bq   Isotropic =     3.5981   Anisotropy =    15.2085
   XX=    -1.4786   YX=     0.0000   ZX=     0.0000
   XY=     0.0000   YY=    -1.4641   ZY=     0.0000
   XZ=     0.0000   YZ=     0.0000   ZZ=    13.7372
   Eigenvalues:    -1.4786    -1.4641    13.7372
     37  Bq   Isotropic =     3.2728   Anisotropy =    14.1346
   XX=    -1.4457   YX=     0.0000   ZX=     0.0000
   XY=     0.0000   YY=    -1.4319   ZY=     0.0000
   XZ=     0.0000   YZ=     0.0000   ZZ=    12.6959
   Eigenvalues:    -1.4457    -1.4319    12.6959
     38  Bq   Isotropic =     2.9803   Anisotropy =    13.1316
   XX=    -1.4035   YX=     0.0000   ZX=     0.0000
   XY=     0.0000   YY=    -1.3904   ZY=     0.0000
   XZ=     0.0000   YZ=     0.0000   ZZ=    11.7347
   Eigenvalues:    -1.4035    -1.3904    11.7347
     39  Bq   Isotropic =     2.7177   Anisotropy =    12.1986
   XX=    -1.3547   YX=     0.0000   ZX=     0.0000
   XY=     0.0000   YY=    -1.3424   ZY=     0.0000
   XZ=     0.0000   YZ=     0.0000   ZZ=    10.8501
   Eigenvalues:    -1.3547    -1.3424    10.8501
     40  Bq   Isotropic =     2.4820   Anisotropy =    11.3336
   XX=    -1.3017   YX=     0.0000   ZX=     0.0000
   XY=     0.0000   YY=    -1.2901   ZY=     0.0000
   XZ=     0.0000   YZ=     0.0000   ZZ=    10.0378
   Eigenvalues:    -1.3017    -1.2901    10.0378
     41  Bq   Isotropic =     2.2705   Anisotropy =    10.5336
   XX=    -1.2461   YX=     0.0000   ZX=     0.0000
   XY=     0.0000   YY=    -1.2352   ZY=     0.0000
   XZ=     0.0000   YZ=     0.0000   ZZ=     9.2930
   Eigenvalues:    -1.2461    -1.2352     9.2930
     42  Bq   Isotropic =     2.0806   Anisotropy =     9.7950
   XX=    -1.1894   YX=     0.0000   ZX=     0.0000
   XY=     0.0000   YY=    -1.1793   ZY=     0.0000
   XZ=     0.0000   YZ=     0.0000   ZZ=     8.6106
   Eigenvalues:    -1.1894    -1.1793     8.6106
     43  Bq   Isotropic =     1.9099   Anisotropy =     9.1140
   XX=    -1.1328   YX=     0.0000   ZX=     0.0000
   XY=     0.0000   YY=    -1.1233   ZY=     0.0000
   XZ=     0.0000   YZ=     0.0000   ZZ=     7.9859
   Eigenvalues:    -1.1328    -1.1233     7.9859
     44  Bq   Isotropic =     1.7563   Anisotropy =     8.4866
   XX=    -1.0770   YX=     0.0000   ZX=     0.0000
   XY=     0.0000   YY=    -1.0681   ZY=     0.0000
   XZ=     0.0000   YZ=     0.0000   ZZ=     7.4140
   Eigenvalues:    -1.0770    -1.0681     7.4140
     45  Bq   Isotropic =     1.6179   Anisotropy =     7.9088
   XX=    -1.0226   YX=     0.0000   ZX=     0.0000
   XY=     0.0000   YY=    -1.0143   ZY=     0.0000
   XZ=     0.0000   YZ=     0.0000   ZZ=     6.8904
   Eigenvalues:    -1.0226    -1.0143     6.8904
     46  Bq   Isotropic =     1.4929   Anisotropy =     7.3769
   XX=    -0.9700   YX=     0.0000   ZX=     0.0000
   XY=     0.0000   YY=    -0.9622   ZY=     0.0000
   XZ=     0.0000   YZ=     0.0000   ZZ=     6.4108
   Eigenvalues:    -0.9700    -0.9622     6.4108
     47  Bq   Isotropic =     1.3799   Anisotropy =     6.8871
   XX=    -0.9195   YX=     0.0000   ZX=     0.0000
   XY=     0.0000   YY=    -0.9122   ZY=     0.0000
   XZ=     0.0000   YZ=     0.0000   ZZ=     5.9713
   Eigenvalues:    -0.9195    -0.9122     5.9713
     48  Bq   Isotropic =     1.2775   Anisotropy =     6.4360
   XX=    -0.8712   YX=     0.0000   ZX=     0.0000
   XY=     0.0000   YY=    -0.8644   ZY=     0.0000
   XZ=     0.0000   YZ=     0.0000   ZZ=     5.5682
   Eigenvalues:    -0.8712    -0.8644     5.5682
     49  Bq   Isotropic =     1.1847   Anisotropy =     6.0204
   XX=    -0.8253   YX=     0.0000   ZX=     0.0000
   XY=     0.0000   YY=    -0.8190   ZY=     0.0000
   XZ=     0.0000   YZ=     0.0000   ZZ=     5.1983
   Eigenvalues:    -0.8253    -0.8190     5.1983
     50  Bq   Isotropic =     1.1003   Anisotropy =     5.6372
   XX=    -0.7817   YX=     0.0000   ZX=     0.0000
   XY=     0.0000   YY=    -0.7758   ZY=     0.0000
   XZ=     0.0000   YZ=     0.0000   ZZ=     4.8584
   Eigenvalues:    -0.7817    -0.7758     4.8584
     51  Bq   Isotropic =     1.0235   Anisotropy =     5.2836
   XX=    -0.7405   YX=     0.0000   ZX=     0.0000
   XY=     0.0000   YY=    -0.7350   ZY=     0.0000
   XZ=     0.0000   YZ=     0.0000   ZZ=     4.5459
   Eigenvalues:    -0.7405    -0.7350     4.5459
     52  Bq   Isotropic =     0.9534   Anisotropy =     4.9572
   XX=    -0.7015   YX=     0.0000   ZX=     0.0000
   XY=     0.0000   YY=    -0.6964   ZY=     0.0000
   XZ=     0.0000   YZ=     0.0000   ZZ=     4.2582
   Eigenvalues:    -0.7015    -0.6964     4.2582
 End of Minotr F.D. properties file   721 does not exist.
 End of Minotr F.D. properties file   722 does not exist.
 End of Minotr F.D. properties file   788 does not exist.

 **********************************************************************

            Population analysis using the SCF density.

 **********************************************************************

 Alpha  occ. eigenvalues --  -10.17871 -10.17848 -10.17848 -10.17793 -10.17793
 Alpha  occ. eigenvalues --  -10.17766  -0.86028  -0.75175  -0.75174  -0.60852
 Alpha  occ. eigenvalues --   -0.60852  -0.53057  -0.46750  -0.45307  -0.42886
 Alpha  occ. eigenvalues --   -0.42886  -0.37241  -0.35154  -0.35154  -0.25917
 Alpha  occ. eigenvalues --   -0.25917
 Alpha virt. eigenvalues --   -0.01587  -0.01586   0.00455   0.02352   0.02353
 Alpha virt. eigenvalues --    0.04558   0.04558   0.06335   0.07222   0.07844
 Alpha virt. eigenvalues --    0.08999   0.09023   0.09945   0.12753   0.14015
 Alpha virt. eigenvalues --    0.14028   0.14311   0.14314   0.14516   0.14551
 Alpha virt. eigenvalues --    0.16911   0.19550   0.19552   0.20055   0.20603
 Alpha virt. eigenvalues --    0.20620   0.20728   0.20729   0.22435   0.23457
 Alpha virt. eigenvalues --    0.23470   0.26645   0.28330   0.32428   0.32428
 Alpha virt. eigenvalues --    0.32488   0.32489   0.40582   0.45770   0.50513
 Alpha virt. eigenvalues --    0.52589   0.52598   0.53042   0.54928   0.54934
 Alpha virt. eigenvalues --    0.55095   0.57466   0.57468   0.60648   0.61855
 Alpha virt. eigenvalues --    0.61857   0.67642   0.69312   0.69313   0.71973
 Alpha virt. eigenvalues --    0.71976   0.73891   0.78529   0.83211   0.83218
 Alpha virt. eigenvalues --    0.83775   0.83776   0.86316   0.86562   0.86564
 Alpha virt. eigenvalues --    0.87288   1.01112   1.01703   1.01709   1.02443
 Alpha virt. eigenvalues --    1.20084   1.20084   1.23365   1.23365   1.27833
 Alpha virt. eigenvalues --    1.29994   1.49581   1.51231   1.51232   1.51632
 Alpha virt. eigenvalues --    1.73315   1.73317   1.78625   1.78625   1.82628
 Alpha virt. eigenvalues --    1.82631   1.92570   1.92571   1.96841   1.96841
 Alpha virt. eigenvalues --    1.98642   2.00380   2.23017   2.23019   2.25356
 Alpha virt. eigenvalues --    2.25356   2.34372   2.36426   2.39485   2.39485
 Alpha virt. eigenvalues --    2.46175   2.63378   2.66717   2.75952   2.75954
 Alpha virt. eigenvalues --    2.86368   2.86371   2.88042   2.88042   3.06036
 Alpha virt. eigenvalues --    3.08094   3.24282   3.29069   3.29070   3.30045
 Alpha virt. eigenvalues --    3.30046   3.48644   3.61249   3.61250   3.73031
 Alpha virt. eigenvalues --    4.01532   4.01533   4.78678  23.27106  23.84072
 Alpha virt. eigenvalues --   23.84072  24.03859  24.03859  24.15077
     Molecular Orbital Coefficients:
                           1         2         3         4         5
                           O         O         O         O         O
     Eigenvalues --   -10.17871 -10.17848 -10.17848 -10.17793 -10.17793
   1 1   C  1S          0.22969   0.00000   0.32492   0.00000   0.32503
   2        2S          0.18940   0.00000   0.26751   0.00000   0.26743
   3        2PX        -0.00010   0.00000   0.00014   0.00000   0.00050
   4        2PY         0.00000   0.00092   0.00000  -0.00063   0.00000
   5        2PZ         0.00000   0.00000   0.00000   0.00000   0.00000
   6        3S          0.00655   0.00000   0.01105   0.00000   0.01097
   7        3PX         0.00033   0.00000  -0.00153   0.00000  -0.00255
   8        3PY         0.00000  -0.00438   0.00000   0.00240   0.00000
   9        3PZ         0.00000   0.00000   0.00000   0.00000   0.00000
  10        4S         -0.00436   0.00000  -0.00665   0.00000  -0.00753
  11        4PX        -0.00052   0.00000   0.00091   0.00000   0.00274
  12        4PY         0.00000   0.00160   0.00000  -0.00081   0.00000
  13        4PZ         0.00000   0.00000   0.00000   0.00000   0.00000
  14        5S         -0.00017   0.00000   0.00957   0.00000   0.02136
  15        5PX        -0.00105   0.00000  -0.00277   0.00000  -0.00420
  16        5PY         0.00000  -0.00264   0.00000   0.00198   0.00000
  17        5PZ         0.00000   0.00000   0.00000   0.00000   0.00000
  18        6D 0        0.00006   0.00000  -0.00043   0.00000  -0.00134
  19        6D+1        0.00000   0.00000   0.00000   0.00000   0.00000
  20        6D-1        0.00000   0.00000   0.00000   0.00000   0.00000
  21        6D+2        0.00027   0.00000  -0.00055   0.00000  -0.00122
  22        6D-2        0.00000   0.00224   0.00000  -0.00119   0.00000
  23 2   C  1S          0.22974   0.28141  -0.16249   0.28147  -0.16248
  24        2S          0.18944   0.23169  -0.13378   0.23158  -0.13368
  25        2PX         0.00005   0.00034   0.00072  -0.00049  -0.00035
  26        2PY        -0.00009   0.00033   0.00034   0.00021  -0.00049
  27        2PZ         0.00000   0.00000   0.00000   0.00000   0.00000
  28        3S          0.00655   0.00957  -0.00553   0.00950  -0.00549
  29        3PX        -0.00017  -0.00124  -0.00367   0.00214   0.00116
  30        3PY         0.00029  -0.00224  -0.00124  -0.00131   0.00214
  31        3PZ         0.00000   0.00000   0.00000   0.00000   0.00000
  32        4S         -0.00436  -0.00576   0.00333  -0.00652   0.00376
  33        4PX         0.00026   0.00030   0.00142  -0.00154   0.00008
  34        4PY        -0.00045   0.00108   0.00030   0.00185  -0.00154
  35        4PZ         0.00000   0.00000   0.00000   0.00000   0.00000
  36        5S         -0.00016   0.00829  -0.00478   0.01850  -0.01068
  37        5PX         0.00053   0.00006  -0.00267   0.00267   0.00043
  38        5PY        -0.00091  -0.00274   0.00006  -0.00265   0.00267
  39        5PZ         0.00000   0.00000   0.00000   0.00000   0.00000
  40        6D 0        0.00006  -0.00037   0.00022  -0.00116   0.00067
  41        6D+1        0.00000   0.00000   0.00000   0.00000   0.00000
  42        6D-1        0.00000   0.00000   0.00000   0.00000   0.00000
  43        6D+2       -0.00014  -0.00073  -0.00181   0.00104   0.00059
  44        6D-2       -0.00024   0.00097   0.00073   0.00062  -0.00104
  45 3   C  1S          0.22974  -0.28141  -0.16249  -0.28147  -0.16248
  46        2S          0.18944  -0.23169  -0.13378  -0.23158  -0.13368
  47        2PX         0.00005  -0.00034   0.00072   0.00049  -0.00035
  48        2PY         0.00009   0.00033  -0.00034   0.00021   0.00049
  49        2PZ         0.00000   0.00000   0.00000   0.00000   0.00000
  50        3S          0.00655  -0.00957  -0.00553  -0.00950  -0.00549
  51        3PX        -0.00017   0.00124  -0.00367  -0.00214   0.00116
  52        3PY        -0.00029  -0.00224   0.00124  -0.00131  -0.00214
  53        3PZ         0.00000   0.00000   0.00000   0.00000   0.00000
  54        4S         -0.00436   0.00576   0.00333   0.00652   0.00376
  55        4PX         0.00026  -0.00030   0.00142   0.00154   0.00008
  56        4PY         0.00045   0.00108  -0.00030   0.00185   0.00154
  57        4PZ         0.00000   0.00000   0.00000   0.00000   0.00000
  58        5S         -0.00016  -0.00829  -0.00478  -0.01850  -0.01068
  59        5PX         0.00053  -0.00006  -0.00267  -0.00267   0.00043
  60        5PY         0.00091  -0.00274  -0.00006  -0.00265  -0.00267
  61        5PZ         0.00000   0.00000   0.00000   0.00000   0.00000
  62        6D 0        0.00006   0.00037   0.00022   0.00116   0.00067
  63        6D+1        0.00000   0.00000   0.00000   0.00000   0.00000
  64        6D-1        0.00000   0.00000   0.00000   0.00000   0.00000
  65        6D+2       -0.00014   0.00073  -0.00181  -0.00104   0.00059
  66        6D-2        0.00024   0.00097  -0.00073   0.00062   0.00104
  67 4   C  1S          0.22974   0.28141   0.16249  -0.28147  -0.16248
  68        2S          0.18944   0.23169   0.13378  -0.23158  -0.13368
  69        2PX        -0.00005  -0.00034   0.00072  -0.00049   0.00035
  70        2PY        -0.00009   0.00033  -0.00034  -0.00021  -0.00049
  71        2PZ         0.00000   0.00000   0.00000   0.00000   0.00000
  72        3S          0.00655   0.00957   0.00553  -0.00950  -0.00549
  73        3PX         0.00017   0.00124  -0.00367   0.00214  -0.00116
  74        3PY         0.00029  -0.00224   0.00124   0.00131   0.00214
  75        3PZ         0.00000   0.00000   0.00000   0.00000   0.00000
  76        4S         -0.00436  -0.00576  -0.00333   0.00652   0.00376
  77        4PX        -0.00026  -0.00030   0.00142  -0.00154  -0.00008
  78        4PY        -0.00045   0.00108  -0.00030  -0.00185  -0.00154
  79        4PZ         0.00000   0.00000   0.00000   0.00000   0.00000
  80        5S         -0.00016   0.00829   0.00478  -0.01850  -0.01068
  81        5PX        -0.00053  -0.00006  -0.00267   0.00267  -0.00043
  82        5PY        -0.00091  -0.00274  -0.00006   0.00265   0.00267
  83        5PZ         0.00000   0.00000   0.00000   0.00000   0.00000
  84        6D 0        0.00006  -0.00037  -0.00022   0.00116   0.00067
  85        6D+1        0.00000   0.00000   0.00000   0.00000   0.00000
  86        6D-1        0.00000   0.00000   0.00000   0.00000   0.00000
  87        6D+2       -0.00014  -0.00073   0.00181  -0.00104   0.00059
  88        6D-2        0.00024  -0.00097   0.00073   0.00062   0.00104
  89 5   C  1S          0.22969   0.00000  -0.32492   0.00000   0.32503
  90        2S          0.18940   0.00000  -0.26751   0.00000   0.26743
  91        2PX         0.00010   0.00000   0.00014   0.00000  -0.00050
  92        2PY         0.00000   0.00092   0.00000   0.00063   0.00000
  93        2PZ         0.00000   0.00000   0.00000   0.00000   0.00000
  94        3S          0.00655   0.00000  -0.01105   0.00000   0.01097
  95        3PX        -0.00033   0.00000  -0.00153   0.00000   0.00255
  96        3PY         0.00000  -0.00438   0.00000  -0.00240   0.00000
  97        3PZ         0.00000   0.00000   0.00000   0.00000   0.00000
  98        4S         -0.00436   0.00000   0.00665   0.00000  -0.00753
  99        4PX         0.00052   0.00000   0.00091   0.00000  -0.00274
 100        4PY         0.00000   0.00160   0.00000   0.00081   0.00000
 101        4PZ         0.00000   0.00000   0.00000   0.00000   0.00000
 102        5S         -0.00017   0.00000  -0.00957   0.00000   0.02136
 103        5PX         0.00105   0.00000  -0.00277   0.00000   0.00420
 104        5PY         0.00000  -0.00264   0.00000  -0.00198   0.00000
 105        5PZ         0.00000   0.00000   0.00000   0.00000   0.00000
 106        6D 0        0.00006   0.00000   0.00043   0.00000  -0.00134
 107        6D+1        0.00000   0.00000   0.00000   0.00000   0.00000
 108        6D-1        0.00000   0.00000   0.00000   0.00000   0.00000
 109        6D+2        0.00027   0.00000   0.00055   0.00000  -0.00122
 110        6D-2        0.00000  -0.00224   0.00000  -0.00119   0.00000
 111 6   C  1S          0.22974  -0.28141   0.16249   0.28147  -0.16248
 112        2S          0.18944  -0.23169   0.13378   0.23158  -0.13368
 113        2PX        -0.00005   0.00034   0.00072   0.00049   0.00035
 114        2PY         0.00009   0.00033   0.00034  -0.00021   0.00049
 115        2PZ         0.00000   0.00000   0.00000   0.00000   0.00000
 116        3S          0.00655  -0.00957   0.00553   0.00950  -0.00549
 117        3PX         0.00017  -0.00124  -0.00367  -0.00214  -0.00116
 118        3PY        -0.00029  -0.00224  -0.00124   0.00131  -0.00214
 119        3PZ         0.00000   0.00000   0.00000   0.00000   0.00000
 120        4S         -0.00436   0.00576  -0.00333  -0.00652   0.00376
 121        4PX        -0.00026   0.00030   0.00142   0.00154  -0.00008
 122        4PY         0.00045   0.00108   0.00030  -0.00185   0.00154
 123        4PZ         0.00000   0.00000   0.00000   0.00000   0.00000
 124        5S         -0.00016  -0.00829   0.00478   0.01850  -0.01068
 125        5PX        -0.00053   0.00006  -0.00267  -0.00267  -0.00043
 126        5PY         0.00091  -0.00274   0.00006   0.00265  -0.00267
 127        5PZ         0.00000   0.00000   0.00000   0.00000   0.00000
 128        6D 0        0.00006   0.00037  -0.00022  -0.00116   0.00067
 129        6D+1        0.00000   0.00000   0.00000   0.00000   0.00000
 130        6D-1        0.00000   0.00000   0.00000   0.00000   0.00000
 131        6D+2       -0.00014   0.00073   0.00181   0.00104   0.00059
 132        6D-2       -0.00024  -0.00097  -0.00073   0.00062  -0.00104
 133 7   H  1S         -0.00012   0.00000   0.00017   0.00000   0.00033
 134        2S         -0.00032   0.00000  -0.00037   0.00000  -0.00055
 135        3S          0.00244   0.00000   0.00098   0.00000   0.00001
 136 8   H  1S         -0.00012   0.00014   0.00008  -0.00028  -0.00016
 137        2S         -0.00032  -0.00032  -0.00019   0.00047   0.00027
 138        3S          0.00244   0.00085   0.00049  -0.00001   0.00000
 139 9   H  1S         -0.00012   0.00014  -0.00008   0.00028  -0.00016
 140        2S         -0.00032  -0.00032   0.00019  -0.00047   0.00027
 141        3S          0.00244   0.00085  -0.00049   0.00001   0.00000
 142 10  H  1S         -0.00012   0.00000  -0.00017   0.00000   0.00033
 143        2S         -0.00032   0.00000   0.00037   0.00000  -0.00055
 144        3S          0.00244   0.00000  -0.00098   0.00000   0.00001
 145 11  H  1S         -0.00012  -0.00014  -0.00008  -0.00028  -0.00016
 146        2S         -0.00032   0.00032   0.00019   0.00047   0.00027
 147        3S          0.00244  -0.00085  -0.00049  -0.00001   0.00000
 148 12  H  1S         -0.00012  -0.00014   0.00008   0.00028  -0.00016
 149        2S         -0.00032   0.00032  -0.00019  -0.00047   0.00027
 150        3S          0.00244  -0.00085   0.00049   0.00001   0.00000
                           6         7         8         9        10
                           O         O         O         O         O
     Eigenvalues --   -10.17766  -0.86028  -0.75175  -0.75174  -0.60852
   1 1   C  1S          0.22987  -0.05186   0.00000  -0.07247   0.05693
   2        2S          0.18905  -0.08019   0.00000  -0.11268   0.08953
   3        2PX         0.00043  -0.02955   0.00000  -0.01306  -0.02825
   4        2PY         0.00000   0.00000   0.05144   0.00000   0.00000
   5        2PZ         0.00000   0.00000   0.00000   0.00000   0.00000
   6        3S          0.00833   0.20829   0.00000   0.29879  -0.24389
   7        3PX        -0.00186  -0.03859   0.00000  -0.00702  -0.05515
   8        3PY         0.00000   0.00000   0.08081   0.00000   0.00000
   9        3PZ         0.00000   0.00000   0.00000   0.00000   0.00000
  10        4S         -0.02115   0.09992   0.00000   0.15860  -0.15222
  11        4PX         0.01175  -0.00792   0.00000  -0.00047  -0.03608
  12        4PY         0.00000   0.00000   0.02770   0.00000   0.00000
  13        4PZ         0.00000   0.00000   0.00000   0.00000   0.00000
  14        5S          0.00236  -0.00106   0.00000   0.00712   0.25546
  15        5PX         0.00017   0.00601   0.00000   0.01865  -0.06633
  16        5PY         0.00000   0.00000  -0.02117   0.00000   0.00000
  17        5PZ         0.00000   0.00000   0.00000   0.00000   0.00000
  18        6D 0       -0.00111  -0.01059   0.00000  -0.01118   0.00710
  19        6D+1        0.00000   0.00000   0.00000   0.00000   0.00000
  20        6D-1        0.00000   0.00000   0.00000   0.00000   0.00000
  21        6D+2       -0.00095   0.00116   0.00000   0.00021  -0.00643
  22        6D-2        0.00000   0.00000  -0.01413   0.00000   0.00000
  23 2   C  1S          0.22982  -0.05186  -0.06276   0.03624  -0.02847
  24        2S          0.18902  -0.08019  -0.09758   0.05634  -0.04476
  25        2PX        -0.00022   0.01477   0.02793   0.03532   0.06448
  26        2PY         0.00037  -0.02559   0.00307   0.02793   0.05354
  27        2PZ         0.00000   0.00000   0.00000   0.00000   0.00000
  28        3S          0.00833   0.20830   0.25876  -0.14939   0.12194
  29        3PX         0.00093   0.01930   0.03803   0.05885   0.08955
  30        3PY        -0.00161  -0.03342   0.01494   0.03803   0.08354
  31        3PZ         0.00000   0.00000   0.00000   0.00000   0.00000
  32        4S         -0.02115   0.09990   0.13736  -0.07933   0.07611
  33        4PX        -0.00587   0.00395   0.01220   0.02065   0.03287
  34        4PY         0.01018  -0.00684   0.00657   0.01221   0.03981
  35        4PZ         0.00000   0.00000   0.00000   0.00000   0.00000
  36        5S          0.00236  -0.00127   0.00602  -0.00332  -0.12773
  37        5PX        -0.00009  -0.00302  -0.01726  -0.01119  -0.00941
  38        5PY         0.00015   0.00525   0.00872  -0.01728   0.03286
  39        5PZ         0.00000   0.00000   0.00000   0.00000   0.00000
  40        6D 0       -0.00111  -0.01059  -0.00968   0.00559  -0.00355
  41        6D+1        0.00000   0.00000   0.00000   0.00000   0.00000
  42        6D-1        0.00000   0.00000   0.00000   0.00000   0.00000
  43        6D+2        0.00047  -0.00058   0.00603   0.01065   0.00582
  44        6D-2        0.00082  -0.00100  -0.00369  -0.00603  -0.00707
  45 3   C  1S          0.22982  -0.05186   0.06276   0.03624  -0.02847
  46        2S          0.18902  -0.08019   0.09758   0.05634  -0.04476
  47        2PX        -0.00022   0.01477  -0.02793   0.03532   0.06448
  48        2PY        -0.00037   0.02559   0.00307  -0.02793  -0.05354
  49        2PZ         0.00000   0.00000   0.00000   0.00000   0.00000
  50        3S          0.00833   0.20830  -0.25876  -0.14939   0.12194
  51        3PX         0.00093   0.01930  -0.03803   0.05885   0.08955
  52        3PY         0.00161   0.03342   0.01494  -0.03803  -0.08354
  53        3PZ         0.00000   0.00000   0.00000   0.00000   0.00000
  54        4S         -0.02115   0.09990  -0.13736  -0.07933   0.07611
  55        4PX        -0.00587   0.00395  -0.01220   0.02065   0.03287
  56        4PY        -0.01018   0.00684   0.00657  -0.01221  -0.03981
  57        4PZ         0.00000   0.00000   0.00000   0.00000   0.00000
  58        5S          0.00236  -0.00127  -0.00602  -0.00332  -0.12773
  59        5PX        -0.00009  -0.00302   0.01726  -0.01119  -0.00941
  60        5PY        -0.00015  -0.00525   0.00872   0.01728  -0.03286
  61        5PZ         0.00000   0.00000   0.00000   0.00000   0.00000
  62        6D 0       -0.00111  -0.01059   0.00968   0.00559  -0.00355
  63        6D+1        0.00000   0.00000   0.00000   0.00000   0.00000
  64        6D-1        0.00000   0.00000   0.00000   0.00000   0.00000
  65        6D+2        0.00047  -0.00058  -0.00603   0.01065   0.00582
  66        6D-2       -0.00082   0.00100  -0.00369   0.00603   0.00707
  67 4   C  1S         -0.22982  -0.05186  -0.06276  -0.03624  -0.02847
  68        2S         -0.18902  -0.08019  -0.09758  -0.05634  -0.04476
  69        2PX        -0.00022  -0.01477  -0.02793   0.03532  -0.06448
  70        2PY        -0.00037  -0.02559   0.00307  -0.02793   0.05354
  71        2PZ         0.00000   0.00000   0.00000   0.00000   0.00000
  72        3S         -0.00833   0.20830   0.25876   0.14939   0.12194
  73        3PX         0.00093  -0.01930  -0.03803   0.05885  -0.08955
  74        3PY         0.00161  -0.03342   0.01494  -0.03803   0.08354
  75        3PZ         0.00000   0.00000   0.00000   0.00000   0.00000
  76        4S          0.02115   0.09990   0.13736   0.07933   0.07611
  77        4PX        -0.00587  -0.00395  -0.01220   0.02065  -0.03287
  78        4PY        -0.01018  -0.00684   0.00657  -0.01221   0.03981
  79        4PZ         0.00000   0.00000   0.00000   0.00000   0.00000
  80        5S         -0.00236  -0.00127   0.00602   0.00332  -0.12773
  81        5PX        -0.00009   0.00302   0.01726  -0.01119   0.00941
  82        5PY        -0.00015   0.00525   0.00872   0.01728   0.03286
  83        5PZ         0.00000   0.00000   0.00000   0.00000   0.00000
  84        6D 0        0.00111  -0.01059  -0.00968  -0.00559  -0.00355
  85        6D+1        0.00000   0.00000   0.00000   0.00000   0.00000
  86        6D-1        0.00000   0.00000   0.00000   0.00000   0.00000
  87        6D+2       -0.00047  -0.00058   0.00603  -0.01065   0.00582
  88        6D-2        0.00082   0.00100   0.00369  -0.00603   0.00707
  89 5   C  1S         -0.22987  -0.05186   0.00000   0.07247   0.05693
  90        2S         -0.18905  -0.08019   0.00000   0.11268   0.08953
  91        2PX         0.00043   0.02955   0.00000  -0.01306   0.02825
  92        2PY         0.00000   0.00000   0.05144   0.00000   0.00000
  93        2PZ         0.00000   0.00000   0.00000   0.00000   0.00000
  94        3S         -0.00833   0.20829   0.00000  -0.29879  -0.24389
  95        3PX        -0.00186   0.03859   0.00000  -0.00702   0.05515
  96        3PY         0.00000   0.00000   0.08081   0.00000   0.00000
  97        3PZ         0.00000   0.00000   0.00000   0.00000   0.00000
  98        4S          0.02115   0.09992   0.00000  -0.15860  -0.15222
  99        4PX         0.01175   0.00792   0.00000  -0.00047   0.03608
 100        4PY         0.00000   0.00000   0.02770   0.00000   0.00000
 101        4PZ         0.00000   0.00000   0.00000   0.00000   0.00000
 102        5S         -0.00236  -0.00106   0.00000  -0.00712   0.25546
 103        5PX         0.00017  -0.00601   0.00000   0.01865   0.06633
 104        5PY         0.00000   0.00000  -0.02117   0.00000   0.00000
 105        5PZ         0.00000   0.00000   0.00000   0.00000   0.00000
 106        6D 0        0.00111  -0.01059   0.00000   0.01118   0.00710
 107        6D+1        0.00000   0.00000   0.00000   0.00000   0.00000
 108        6D-1        0.00000   0.00000   0.00000   0.00000   0.00000
 109        6D+2        0.00095   0.00116   0.00000  -0.00021  -0.00643
 110        6D-2        0.00000   0.00000   0.01413   0.00000   0.00000
 111 6   C  1S         -0.22982  -0.05186   0.06276  -0.03624  -0.02847
 112        2S         -0.18902  -0.08019   0.09758  -0.05634  -0.04476
 113        2PX        -0.00022  -0.01477   0.02793   0.03532  -0.06448
 114        2PY         0.00037   0.02559   0.00307   0.02793  -0.05354
 115        2PZ         0.00000   0.00000   0.00000   0.00000   0.00000
 116        3S         -0.00833   0.20830  -0.25876   0.14939   0.12194
 117        3PX         0.00093  -0.01930   0.03803   0.05885  -0.08955
 118        3PY        -0.00161   0.03342   0.01494   0.03803  -0.08354
 119        3PZ         0.00000   0.00000   0.00000   0.00000   0.00000
 120        4S          0.02115   0.09990  -0.13736   0.07933   0.07611
 121        4PX        -0.00587  -0.00395   0.01220   0.02065  -0.03287
 122        4PY         0.01018   0.00684   0.00657   0.01221  -0.03981
 123        4PZ         0.00000   0.00000   0.00000   0.00000   0.00000
 124        5S         -0.00236  -0.00127  -0.00602   0.00332  -0.12773
 125        5PX        -0.00009   0.00302  -0.01726  -0.01119   0.00941
 126        5PY         0.00015  -0.00525   0.00872  -0.01728  -0.03286
 127        5PZ         0.00000   0.00000   0.00000   0.00000   0.00000
 128        6D 0        0.00111  -0.01059   0.00968  -0.00559  -0.00355
 129        6D+1        0.00000   0.00000   0.00000   0.00000   0.00000
 130        6D-1        0.00000   0.00000   0.00000   0.00000   0.00000
 131        6D+2       -0.00047  -0.00058  -0.00603  -0.01065   0.00582
 132        6D-2       -0.00082  -0.00100   0.00369   0.00603  -0.00707
 133 7   H  1S          0.00036   0.02144   0.00000   0.04920  -0.07184
 134        2S         -0.00157   0.01792   0.00000   0.04349  -0.06973
 135        3S         -0.00223  -0.00568   0.00000  -0.00021  -0.01092
 136 8   H  1S         -0.00036   0.02144   0.04261   0.02460   0.03592
 137        2S          0.00157   0.01792   0.03766   0.02175   0.03487
 138        3S          0.00223  -0.00568  -0.00018  -0.00010   0.00546
 139 9   H  1S          0.00036   0.02144   0.04261  -0.02460   0.03592
 140        2S         -0.00157   0.01792   0.03766  -0.02175   0.03487
 141        3S         -0.00223  -0.00568  -0.00018   0.00010   0.00546
 142 10  H  1S         -0.00036   0.02144   0.00000  -0.04920  -0.07184
 143        2S          0.00157   0.01792   0.00000  -0.04349  -0.06973
 144        3S          0.00223  -0.00568   0.00000   0.00021  -0.01092
 145 11  H  1S          0.00036   0.02144  -0.04261  -0.02460   0.03592
 146        2S         -0.00157   0.01792  -0.03766  -0.02175   0.03487
 147        3S         -0.00223  -0.00568   0.00018   0.00010   0.00546
 148 12  H  1S         -0.00036   0.02144  -0.04261   0.02460   0.03592
 149        2S          0.00157   0.01792  -0.03766   0.02175   0.03487
 150        3S          0.00223  -0.00568   0.00018  -0.00010   0.00546
                          11        12        13        14        15
                           O         O         O         O         O
     Eigenvalues --    -0.60852  -0.53057  -0.46750  -0.45307  -0.42886
   1 1   C  1S          0.00000  -0.00547   0.03263   0.00000   0.00000
   2        2S          0.00000  -0.00904   0.05158   0.00000   0.00000
   3        2PX         0.00000   0.09081  -0.05976   0.00000   0.00000
   4        2PY         0.09540   0.00000   0.00000   0.12990  -0.03911
   5        2PZ         0.00000   0.00000   0.00000   0.00000   0.00000
   6        3S          0.00000   0.02627  -0.14180   0.00000   0.00000
   7        3PX         0.00000   0.13676  -0.09429   0.00000   0.00000
   8        3PY         0.13778   0.00000   0.00000   0.18239  -0.05603
   9        3PZ         0.00000   0.00000   0.00000   0.00000   0.00000
  10        4S          0.00000   0.04249  -0.12826   0.00000   0.00000
  11        4PX         0.00000   0.06746  -0.06614   0.00000   0.00000
  12        4PY         0.05586   0.00000   0.00000   0.09492  -0.01926
  13        4PZ         0.00000   0.00000   0.00000   0.00000   0.00000
  14        5S          0.00000   0.00369   0.54099   0.00000   0.00000
  15        5PX         0.00000   0.00199  -0.10879   0.00000   0.00000
  16        5PY         0.00956   0.00000   0.00000  -0.00078   0.00409
  17        5PZ         0.00000   0.00000   0.00000   0.00000   0.00000
  18        6D 0        0.00000  -0.00122   0.00277   0.00000   0.00000
  19        6D+1        0.00000   0.00000   0.00000   0.00000   0.00000
  20        6D-1        0.00000   0.00000   0.00000   0.00000   0.00000
  21        6D+2        0.00000  -0.00227  -0.02483   0.00000   0.00000
  22        6D-2       -0.00990   0.00000   0.00000  -0.00529   0.01805
  23 2   C  1S          0.04931  -0.00547   0.03263   0.00000   0.01099
  24        2S          0.07753  -0.00904   0.05158   0.00000   0.01696
  25        2PX         0.05354  -0.04541   0.02988  -0.11250  -0.07709
  26        2PY         0.00266   0.07865  -0.05176  -0.06495   0.09440
  27        2PZ         0.00000   0.00000   0.00000   0.00000   0.00000
  28        3S         -0.21121   0.02627  -0.14180   0.00000  -0.05043
  29        3PX         0.08354  -0.06838   0.04715  -0.15795  -0.11359
  30        3PY        -0.00692   0.11843  -0.08167  -0.09119   0.14071
  31        3PZ         0.00000   0.00000   0.00000   0.00000   0.00000
  32        4S         -0.13184   0.04248  -0.12828  -0.00001  -0.01692
  33        4PX         0.03979  -0.03373   0.03307  -0.08219  -0.06058
  34        4PY        -0.01309   0.05842  -0.05729  -0.04746   0.08567
  35        4PZ         0.00000   0.00000   0.00000   0.00000   0.00000
  36        5S          0.22137   0.00356   0.54114   0.00001  -0.02553
  37        5PX         0.03290  -0.00099   0.05443   0.00067  -0.00605
  38        5PY        -0.04736   0.00174  -0.09421   0.00038   0.01457
  39        5PZ         0.00000   0.00000   0.00000   0.00000   0.00000
  40        6D 0        0.00615  -0.00122   0.00277   0.00000  -0.00269
  41        6D+1        0.00000   0.00000   0.00000   0.00000   0.00000
  42        6D-1        0.00000   0.00000   0.00000   0.00000   0.00000
  43        6D+2        0.00707   0.00114   0.01242  -0.00458  -0.01199
  44        6D-2        0.00235   0.00197   0.02151   0.00265  -0.00273
  45 3   C  1S         -0.04931  -0.00547   0.03263   0.00000  -0.01099
  46        2S         -0.07753  -0.00904   0.05158   0.00000  -0.01696
  47        2PX        -0.05354  -0.04541   0.02988   0.11250   0.07709
  48        2PY         0.00266  -0.07865   0.05176  -0.06495   0.09440
  49        2PZ         0.00000   0.00000   0.00000   0.00000   0.00000
  50        3S          0.21121   0.02627  -0.14180   0.00000   0.05043
  51        3PX        -0.08354  -0.06838   0.04715   0.15795   0.11359
  52        3PY        -0.00692  -0.11843   0.08167  -0.09119   0.14071
  53        3PZ         0.00000   0.00000   0.00000   0.00000   0.00000
  54        4S          0.13184   0.04248  -0.12828   0.00001   0.01692
  55        4PX        -0.03979  -0.03373   0.03307   0.08219   0.06058
  56        4PY        -0.01309  -0.05842   0.05729  -0.04746   0.08567
  57        4PZ         0.00000   0.00000   0.00000   0.00000   0.00000
  58        5S         -0.22137   0.00356   0.54114  -0.00001   0.02553
  59        5PX        -0.03290  -0.00099   0.05443  -0.00067   0.00605
  60        5PY        -0.04736  -0.00174   0.09421   0.00038   0.01457
  61        5PZ         0.00000   0.00000   0.00000   0.00000   0.00000
  62        6D 0       -0.00615  -0.00122   0.00277   0.00000   0.00269
  63        6D+1        0.00000   0.00000   0.00000   0.00000   0.00000
  64        6D-1        0.00000   0.00000   0.00000   0.00000   0.00000
  65        6D+2       -0.00707   0.00114   0.01242   0.00458   0.01199
  66        6D-2        0.00235  -0.00197  -0.02151   0.00265  -0.00273
  67 4   C  1S         -0.04931  -0.00547  -0.03263   0.00000   0.01099
  68        2S         -0.07753  -0.00904  -0.05158   0.00000   0.01696
  69        2PX         0.05354   0.04541   0.02988   0.11250   0.07709
  70        2PY        -0.00266   0.07865   0.05176  -0.06495   0.09440
  71        2PZ         0.00000   0.00000   0.00000   0.00000   0.00000
  72        3S          0.21121   0.02627   0.14180   0.00000  -0.05043
  73        3PX         0.08354   0.06838   0.04715   0.15795   0.11359
  74        3PY         0.00692   0.11843   0.08167  -0.09119   0.14071
  75        3PZ         0.00000   0.00000   0.00000   0.00000   0.00000
  76        4S          0.13184   0.04248   0.12828  -0.00001  -0.01692
  77        4PX         0.03979   0.03373   0.03307   0.08219   0.06058
  78        4PY         0.01309   0.05842   0.05729  -0.04746   0.08567
  79        4PZ         0.00000   0.00000   0.00000   0.00000   0.00000
  80        5S         -0.22137   0.00356  -0.54114   0.00001  -0.02553
  81        5PX         0.03290   0.00099   0.05443  -0.00067   0.00605
  82        5PY         0.04736   0.00174   0.09421   0.00038   0.01457
  83        5PZ         0.00000   0.00000   0.00000   0.00000   0.00000
  84        6D 0       -0.00615  -0.00122  -0.00277   0.00000  -0.00269
  85        6D+1        0.00000   0.00000   0.00000   0.00000   0.00000
  86        6D-1        0.00000   0.00000   0.00000   0.00000   0.00000
  87        6D+2       -0.00707   0.00114  -0.01242  -0.00458  -0.01199
  88        6D-2        0.00235  -0.00197   0.02151  -0.00265   0.00273
  89 5   C  1S          0.00000  -0.00547  -0.03263   0.00000   0.00000
  90        2S          0.00000  -0.00904  -0.05158   0.00000   0.00000
  91        2PX         0.00000  -0.09081  -0.05976   0.00000   0.00000
  92        2PY        -0.09540   0.00000   0.00000   0.12990  -0.03911
  93        2PZ         0.00000   0.00000   0.00000   0.00000   0.00000
  94        3S          0.00000   0.02627   0.14180   0.00000   0.00000
  95        3PX         0.00000  -0.13676  -0.09429   0.00000   0.00000
  96        3PY        -0.13778   0.00000   0.00000   0.18239  -0.05603
  97        3PZ         0.00000   0.00000   0.00000   0.00000   0.00000
  98        4S          0.00000   0.04249   0.12826   0.00000   0.00000
  99        4PX         0.00000  -0.06746  -0.06614   0.00000   0.00000
 100        4PY        -0.05586   0.00000   0.00000   0.09492  -0.01926
 101        4PZ         0.00000   0.00000   0.00000   0.00000   0.00000
 102        5S          0.00000   0.00369  -0.54099   0.00000   0.00000
 103        5PX         0.00000  -0.00199  -0.10879   0.00000   0.00000
 104        5PY        -0.00956   0.00000   0.00000  -0.00078   0.00409
 105        5PZ         0.00000   0.00000   0.00000   0.00000   0.00000
 106        6D 0        0.00000  -0.00122  -0.00277   0.00000   0.00000
 107        6D+1        0.00000   0.00000   0.00000   0.00000   0.00000
 108        6D-1        0.00000   0.00000   0.00000   0.00000   0.00000
 109        6D+2        0.00000  -0.00227   0.02483   0.00000   0.00000
 110        6D-2       -0.00990   0.00000   0.00000   0.00529  -0.01805
 111 6   C  1S          0.04931  -0.00547  -0.03263   0.00000  -0.01099
 112        2S          0.07753  -0.00904  -0.05158   0.00000  -0.01696
 113        2PX        -0.05354   0.04541   0.02988  -0.11250  -0.07709
 114        2PY        -0.00266  -0.07865  -0.05176  -0.06495   0.09440
 115        2PZ         0.00000   0.00000   0.00000   0.00000   0.00000
 116        3S         -0.21121   0.02627   0.14180   0.00000   0.05043
 117        3PX        -0.08354   0.06838   0.04715  -0.15795  -0.11359
 118        3PY         0.00692  -0.11843  -0.08167  -0.09119   0.14071
 119        3PZ         0.00000   0.00000   0.00000   0.00000   0.00000
 120        4S         -0.13184   0.04248   0.12828   0.00001   0.01692
 121        4PX        -0.03979   0.03373   0.03307  -0.08219  -0.06058
 122        4PY         0.01309  -0.05842  -0.05729  -0.04746   0.08567
 123        4PZ         0.00000   0.00000   0.00000   0.00000   0.00000
 124        5S          0.22137   0.00356  -0.54114  -0.00001   0.02553
 125        5PX        -0.03290   0.00099   0.05443   0.00067  -0.00605
 126        5PY         0.04736  -0.00174  -0.09421   0.00038   0.01457
 127        5PZ         0.00000   0.00000   0.00000   0.00000   0.00000
 128        6D 0        0.00615  -0.00122  -0.00277   0.00000   0.00269
 129        6D+1        0.00000   0.00000   0.00000   0.00000   0.00000
 130        6D-1        0.00000   0.00000   0.00000   0.00000   0.00000
 131        6D+2        0.00707   0.00114  -0.01242   0.00458   0.01199
 132        6D-2        0.00235   0.00197  -0.02151  -0.00265   0.00273
 133 7   H  1S          0.00000   0.06984  -0.08620   0.00000   0.00000
 134        2S          0.00000   0.07594  -0.09953   0.00000   0.00000
 135        3S          0.00000   0.01637  -0.04028   0.00000   0.00000
 136 8   H  1S          0.06222   0.06984   0.08620   0.00000   0.08910
 137        2S          0.06040   0.07594   0.09953   0.00000   0.11190
 138        3S          0.00947   0.01637   0.04029   0.00000   0.04712
 139 9   H  1S         -0.06222   0.06984  -0.08620   0.00000   0.08910
 140        2S         -0.06040   0.07594  -0.09953   0.00000   0.11190
 141        3S         -0.00947   0.01637  -0.04029   0.00000   0.04712
 142 10  H  1S          0.00000   0.06984   0.08620   0.00000   0.00000
 143        2S          0.00000   0.07594   0.09953   0.00000   0.00000
 144        3S          0.00000   0.01637   0.04028   0.00000   0.00000
 145 11  H  1S          0.06222   0.06984  -0.08620   0.00000  -0.08910
 146        2S          0.06040   0.07594  -0.09953   0.00000  -0.11190
 147        3S          0.00947   0.01637  -0.04029   0.00000  -0.04712
 148 12  H  1S         -0.06222   0.06984   0.08620   0.00000  -0.08910
 149        2S         -0.06040   0.07594   0.09953   0.00000  -0.11190
 150        3S         -0.00947   0.01637   0.04029   0.00000  -0.04712
                          16        17        18        19        20
                           O         O         O         O         O
     Eigenvalues --    -0.42886  -0.37241  -0.35154  -0.35154  -0.25917
   1 1   C  1S          0.01269   0.00000   0.00000   0.00267   0.00000
   2        2S          0.01958   0.00000   0.00000   0.00424   0.00000
   3        2PX         0.13891   0.00000   0.00000   0.10357   0.00000
   4        2PY         0.00000   0.00000   0.12381   0.00000   0.00000
   5        2PZ         0.00000   0.10038   0.00000   0.00000   0.15330
   6        3S         -0.05823   0.00000   0.00000  -0.01650   0.00000
   7        3PX         0.20629   0.00000   0.00000   0.15217   0.00000
   8        3PY         0.00000   0.00000   0.16900   0.00000   0.00000
   9        3PZ         0.00000   0.15803   0.00000   0.00000   0.24026
  10        4S         -0.01951   0.00000   0.00000   0.03798   0.00000
  11        4PX         0.12063   0.00000   0.00000   0.10855   0.00000
  12        4PY         0.00000   0.00000   0.11788   0.00000   0.00000
  13        4PZ         0.00000   0.10999   0.00000   0.00000   0.21647
  14        5S         -0.02943   0.00000   0.00000  -0.09354   0.00000
  15        5PX         0.01805   0.00000   0.00000   0.02180   0.00000
  16        5PY         0.00000   0.00000  -0.01064   0.00000   0.00000
  17        5PZ         0.00000   0.00486   0.00000   0.00000   0.03400
  18        6D 0       -0.00310   0.00000   0.00000  -0.00146   0.00000
  19        6D+1        0.00000  -0.01134   0.00000   0.00000  -0.00454
  20        6D-1        0.00000   0.00000   0.00000   0.00000   0.00000
  21        6D+2        0.00965   0.00000   0.00000   0.03184   0.00000
  22        6D-2        0.00000   0.00000  -0.01406   0.00000   0.00000
  23 2   C  1S         -0.00635   0.00000   0.00231  -0.00133   0.00000
  24        2S         -0.00979   0.00000   0.00367  -0.00212   0.00000
  25        2PX         0.00539   0.00000   0.00877   0.11875   0.00000
  26        2PY        -0.07708   0.00000   0.10863   0.00877   0.00000
  27        2PZ         0.00000   0.10038   0.00000   0.00000  -0.07665
  28        3S          0.02912   0.00000  -0.01429   0.00825   0.00000
  29        3PX         0.00955   0.00000   0.00729   0.16480   0.00000
  30        3PY        -0.11359   0.00000   0.15637   0.00729   0.00000
  31        3PZ         0.00000   0.15804   0.00000   0.00000  -0.12013
  32        4S          0.00980   0.00000   0.03289  -0.01899   0.00000
  33        4PX         0.01572   0.00000   0.00403   0.11554   0.00000
  34        4PY        -0.06060   0.00000   0.11090   0.00404   0.00000
  35        4PZ         0.00000   0.10995   0.00000   0.00000  -0.10823
  36        5S          0.01467   0.00000  -0.08126   0.04677   0.00000
  37        5PX         0.00756   0.00000  -0.01423  -0.00260   0.00000
  38        5PY        -0.00605   0.00000   0.01365  -0.01409   0.00000
  39        5PZ         0.00000   0.00493   0.00000   0.00000  -0.01686
  40        6D 0        0.00155   0.00000  -0.00127   0.00073   0.00000
  41        6D+1        0.00000   0.00567   0.00000   0.00000   0.01766
  42        6D-1        0.00000  -0.00982   0.00000   0.00000   0.01282
  43        6D+2       -0.01112   0.00000  -0.00770   0.01851   0.00000
  44        6D-2        0.01199   0.00000  -0.02740   0.00770   0.00000
  45 3   C  1S         -0.00635   0.00000  -0.00231  -0.00133   0.00000
  46        2S         -0.00979   0.00000  -0.00367  -0.00212   0.00000
  47        2PX         0.00539   0.00000  -0.00877   0.11875   0.00000
  48        2PY         0.07708   0.00000   0.10863  -0.00877   0.00000
  49        2PZ         0.00000   0.10038   0.00000   0.00000  -0.07665
  50        3S          0.02912   0.00000   0.01429   0.00825   0.00000
  51        3PX         0.00955   0.00000  -0.00729   0.16480   0.00000
  52        3PY         0.11359   0.00000   0.15637  -0.00729   0.00000
  53        3PZ         0.00000   0.15804   0.00000   0.00000  -0.12013
  54        4S          0.00980   0.00000  -0.03289  -0.01899   0.00000
  55        4PX         0.01572   0.00000  -0.00403   0.11554   0.00000
  56        4PY         0.06060   0.00000   0.11090  -0.00404   0.00000
  57        4PZ         0.00000   0.10995   0.00000   0.00000  -0.10823
  58        5S          0.01467   0.00000   0.08126   0.04677   0.00000
  59        5PX         0.00756   0.00000   0.01423  -0.00260   0.00000
  60        5PY         0.00605   0.00000   0.01365   0.01409   0.00000
  61        5PZ         0.00000   0.00493   0.00000   0.00000  -0.01686
  62        6D 0        0.00155   0.00000   0.00127   0.00073   0.00000
  63        6D+1        0.00000   0.00567   0.00000   0.00000   0.01766
  64        6D-1        0.00000   0.00982   0.00000   0.00000  -0.01282
  65        6D+2       -0.01112   0.00000   0.00770   0.01851   0.00000
  66        6D-2       -0.01199   0.00000  -0.02740  -0.00770   0.00000
  67 4   C  1S          0.00635   0.00000  -0.00231  -0.00133   0.00000
  68        2S          0.00979   0.00000  -0.00367  -0.00212   0.00000
  69        2PX         0.00539   0.00000   0.00877  -0.11875   0.00000
  70        2PY         0.07708   0.00000  -0.10863   0.00877   0.00000
  71        2PZ         0.00000   0.10038   0.00000   0.00000   0.07665
  72        3S         -0.02912   0.00000   0.01429   0.00825   0.00000
  73        3PX         0.00955   0.00000   0.00729  -0.16480   0.00000
  74        3PY         0.11359   0.00000  -0.15637   0.00729   0.00000
  75        3PZ         0.00000   0.15804   0.00000   0.00000   0.12013
  76        4S         -0.00980   0.00000  -0.03289  -0.01899   0.00000
  77        4PX         0.01572   0.00000   0.00403  -0.11554   0.00000
  78        4PY         0.06060   0.00000  -0.11090   0.00404   0.00000
  79        4PZ         0.00000   0.10995   0.00000   0.00000   0.10823
  80        5S         -0.01467   0.00000   0.08126   0.04677   0.00000
  81        5PX         0.00756   0.00000  -0.01423   0.00260   0.00000
  82        5PY         0.00605   0.00000  -0.01365  -0.01409   0.00000
  83        5PZ         0.00000   0.00493   0.00000   0.00000   0.01686
  84        6D 0       -0.00155   0.00000   0.00127   0.00073   0.00000
  85        6D+1        0.00000  -0.00567   0.00000   0.00000   0.01766
  86        6D-1        0.00000  -0.00982   0.00000   0.00000  -0.01282
  87        6D+2        0.01112   0.00000   0.00770   0.01851   0.00000
  88        6D-2        0.01199   0.00000  -0.02740  -0.00770   0.00000
  89 5   C  1S         -0.01269   0.00000   0.00000   0.00267   0.00000
  90        2S         -0.01958   0.00000   0.00000   0.00424   0.00000
  91        2PX         0.13891   0.00000   0.00000  -0.10357   0.00000
  92        2PY         0.00000   0.00000  -0.12381   0.00000   0.00000
  93        2PZ         0.00000   0.10038   0.00000   0.00000  -0.15330
  94        3S          0.05823   0.00000   0.00000  -0.01650   0.00000
  95        3PX         0.20629   0.00000   0.00000  -0.15217   0.00000
  96        3PY         0.00000   0.00000  -0.16900   0.00000   0.00000
  97        3PZ         0.00000   0.15803   0.00000   0.00000  -0.24026
  98        4S          0.01951   0.00000   0.00000   0.03798   0.00000
  99        4PX         0.12063   0.00000   0.00000  -0.10855   0.00000
 100        4PY         0.00000   0.00000  -0.11788   0.00000   0.00000
 101        4PZ         0.00000   0.10999   0.00000   0.00000  -0.21647
 102        5S          0.02943   0.00000   0.00000  -0.09354   0.00000
 103        5PX         0.01805   0.00000   0.00000  -0.02180   0.00000
 104        5PY         0.00000   0.00000   0.01064   0.00000   0.00000
 105        5PZ         0.00000   0.00486   0.00000   0.00000  -0.03400
 106        6D 0        0.00310   0.00000   0.00000  -0.00146   0.00000
 107        6D+1        0.00000   0.01134   0.00000   0.00000  -0.00454
 108        6D-1        0.00000   0.00000   0.00000   0.00000   0.00000
 109        6D+2       -0.00965   0.00000   0.00000   0.03184   0.00000
 110        6D-2        0.00000   0.00000  -0.01406   0.00000   0.00000
 111 6   C  1S          0.00635   0.00000   0.00231  -0.00133   0.00000
 112        2S          0.00979   0.00000   0.00367  -0.00212   0.00000
 113        2PX         0.00539   0.00000  -0.00877  -0.11875   0.00000
 114        2PY        -0.07708   0.00000  -0.10863  -0.00877   0.00000
 115        2PZ         0.00000   0.10038   0.00000   0.00000   0.07665
 116        3S         -0.02912   0.00000  -0.01429   0.00825   0.00000
 117        3PX         0.00955   0.00000  -0.00729  -0.16480   0.00000
 118        3PY        -0.11359   0.00000  -0.15637  -0.00729   0.00000
 119        3PZ         0.00000   0.15804   0.00000   0.00000   0.12013
 120        4S         -0.00980   0.00000   0.03289  -0.01899   0.00000
 121        4PX         0.01572   0.00000  -0.00403  -0.11554   0.00000
 122        4PY        -0.06060   0.00000  -0.11090  -0.00404   0.00000
 123        4PZ         0.00000   0.10995   0.00000   0.00000   0.10823
 124        5S         -0.01467   0.00000  -0.08126   0.04677   0.00000
 125        5PX         0.00756   0.00000   0.01423   0.00260   0.00000
 126        5PY        -0.00605   0.00000  -0.01365   0.01409   0.00000
 127        5PZ         0.00000   0.00493   0.00000   0.00000   0.01686
 128        6D 0       -0.00155   0.00000  -0.00127   0.00073   0.00000
 129        6D+1        0.00000  -0.00567   0.00000   0.00000   0.01766
 130        6D-1        0.00000   0.00982   0.00000   0.00000   0.01282
 131        6D+2        0.01112   0.00000  -0.00770   0.01851   0.00000
 132        6D-2       -0.01199   0.00000  -0.02740   0.00770   0.00000
 133 7   H  1S          0.10288   0.00000   0.00000   0.10257   0.00000
 134        2S          0.12922   0.00000   0.00000   0.14051   0.00000
 135        3S          0.05442   0.00000   0.00000   0.08598   0.00000
 136 8   H  1S          0.05144   0.00000  -0.08883  -0.05129   0.00000
 137        2S          0.06460   0.00000  -0.12168  -0.07026   0.00000
 138        3S          0.02720   0.00000  -0.07446  -0.04299   0.00000
 139 9   H  1S         -0.05144   0.00000   0.08883  -0.05129   0.00000
 140        2S         -0.06460   0.00000   0.12168  -0.07026   0.00000
 141        3S         -0.02720   0.00000   0.07446  -0.04299   0.00000
 142 10  H  1S         -0.10288   0.00000   0.00000   0.10257   0.00000
 143        2S         -0.12922   0.00000   0.00000   0.14051   0.00000
 144        3S         -0.05442   0.00000   0.00000   0.08598   0.00000
 145 11  H  1S         -0.05144   0.00000  -0.08883  -0.05129   0.00000
 146        2S         -0.06460   0.00000  -0.12168  -0.07026   0.00000
 147        3S         -0.02720   0.00000  -0.07446  -0.04299   0.00000
 148 12  H  1S          0.05144   0.00000   0.08883  -0.05129   0.00000
 149        2S          0.06460   0.00000   0.12168  -0.07026   0.00000
 150        3S          0.02720   0.00000   0.07446  -0.04299   0.00000
                          21        22        23        24        25
                           O         V         V         V         V
     Eigenvalues --    -0.25917  -0.01587  -0.01586   0.00455   0.02352
   1 1   C  1S          0.00000   0.00000   0.00000   0.01403   0.00000
   2        2S          0.00000   0.00000   0.00000   0.02364   0.00000
   3        2PX         0.00000   0.00000   0.00000  -0.03113   0.00000
   4        2PY         0.00000   0.00000   0.00000   0.00000   0.00121
   5        2PZ         0.00000   0.16036   0.00000   0.00000   0.00000
   6        3S          0.00000   0.00000   0.00000  -0.08127   0.00000
   7        3PX         0.00000   0.00000   0.00000  -0.06028   0.00000
   8        3PY         0.00000   0.00000   0.00000   0.00000  -0.01056
   9        3PZ         0.00000   0.24190   0.00000   0.00000   0.00000
  10        4S          0.00000   0.00000   0.00000  -0.17033   0.00000
  11        4PX         0.00000   0.00000   0.00000  -0.09123   0.00000
  12        4PY         0.00000   0.00000   0.00000   0.00000   0.01260
  13        4PZ         0.00000   0.43271   0.00000   0.00000   0.00000
  14        5S          0.00000   0.00000   0.00000   0.39201   0.00000
  15        5PX         0.00000   0.00000   0.00000   0.28494   0.00000
  16        5PY         0.00000   0.00000   0.00000   0.00000  -1.54369
  17        5PZ         0.00000   0.50047   0.00000   0.00000   0.00000
  18        6D 0        0.00000   0.00000   0.00000   0.00627   0.00000
  19        6D+1        0.00000   0.01725   0.00000   0.00000   0.00000
  20        6D-1        0.02506   0.00000  -0.03670   0.00000   0.00000
  21        6D+2        0.00000   0.00000   0.00000   0.00514   0.00000
  22        6D-2        0.00000   0.00000   0.00000   0.00000   0.00148
  23 2   C  1S          0.00000   0.00000   0.00000   0.01403   0.00975
  24        2S          0.00000   0.00000   0.00000   0.02364   0.01691
  25        2PX         0.00000   0.00000   0.00000   0.01556   0.02300
  26        2PY         0.00000   0.00000   0.00000  -0.02696  -0.03863
  27        2PZ         0.13276  -0.08016   0.13888   0.00000   0.00000
  28        3S          0.00000   0.00000   0.00000  -0.08125  -0.06541
  29        3PX         0.00000   0.00000   0.00000   0.03015   0.04320
  30        3PY         0.00000   0.00000   0.00000  -0.05220  -0.08539
  31        3PZ         0.20809  -0.12096   0.20951   0.00000   0.00000
  32        4S          0.00000   0.00000   0.00000  -0.17064  -0.03657
  33        4PX         0.00000   0.00000   0.00000   0.04564   0.03784
  34        4PY         0.00000   0.00000   0.00000  -0.07906  -0.05295
  35        4PZ         0.18742  -0.21622   0.37478   0.00000   0.00000
  36        5S          0.00000   0.00000   0.00000   0.40764   1.92026
  37        5PX         0.00000   0.00000   0.00000  -0.14195  -1.16442
[...]
 144        3S         -0.00233   0.01471   0.03948   0.02482
 145 11  H  1S          0.00000   0.00000  -0.00002  -0.00042   0.08291
 146        2S         -0.00004  -0.00002  -0.00038  -0.00164   0.06940
 147        3S         -0.00022  -0.00042  -0.00164  -0.00233   0.01471
 148 12  H  1S          0.00000   0.00000   0.00000   0.00000   0.00000
 149        2S          0.00000   0.00000   0.00000  -0.00004  -0.00002
 150        3S          0.00007   0.00000  -0.00004  -0.00022  -0.00042
                         146       147       148       149       150
 146        2S          0.11838
 147        3S          0.03948   0.02482
 148 12  H  1S         -0.00002  -0.00042   0.08291
 149        2S         -0.00038  -0.00164   0.06940   0.11838
 150        3S         -0.00164  -0.00233   0.01471   0.03948   0.02482
     Gross orbital populations:
                           1
   1 1   C  1S          1.10326
   2        2S          0.88556
   3        2PX         0.23220
   4        2PY         0.24249
   5        2PZ         0.17132
   6        3S          0.77747
   7        3PX         0.55000
   8        3PY         0.53312
   9        3PZ         0.42825
  10        4S          0.43307
  11        4PX         0.26450
  12        4PY         0.16348
  13        4PZ         0.36763
  14        5S         -0.05779
  15        5PX         0.05716
  16        5PY        -0.01372
  17        5PZ         0.01916
  18        6D 0        0.00479
  19        6D+1        0.00288
  20        6D-1        0.01078
  21        6D+2        0.02646
  22        6D-2        0.01590
  23 2   C  1S          1.10326
  24        2S          0.88556
  25        2PX         0.23992
  26        2PY         0.23478
  27        2PZ         0.17132
  28        3S          0.77747
  29        3PX         0.53735
  30        3PY         0.54578
  31        3PZ         0.42828
  32        4S          0.43307
  33        4PX         0.18870
  34        4PY         0.23925
  35        4PZ         0.36753
  36        5S         -0.05829
  37        5PX         0.00406
  38        5PY         0.03943
  39        5PZ         0.01919
  40        6D 0        0.00479
  41        6D+1        0.00881
  42        6D-1        0.00486
  43        6D+2        0.01854
  44        6D-2        0.02382
  45 3   C  1S          1.10326
  46        2S          0.88556
  47        2PX         0.23992
  48        2PY         0.23478
  49        2PZ         0.17132
  50        3S          0.77747
  51        3PX         0.53735
  52        3PY         0.54578
  53        3PZ         0.42828
  54        4S          0.43307
  55        4PX         0.18870
  56        4PY         0.23925
  57        4PZ         0.36753
  58        5S         -0.05829
  59        5PX         0.00406
  60        5PY         0.03943
  61        5PZ         0.01919
  62        6D 0        0.00479
  63        6D+1        0.00881
  64        6D-1        0.00486
  65        6D+2        0.01854
  66        6D-2        0.02382
  67 4   C  1S          1.10326
  68        2S          0.88556
  69        2PX         0.23992
  70        2PY         0.23478
  71        2PZ         0.17132
  72        3S          0.77747
  73        3PX         0.53735
  74        3PY         0.54578
  75        3PZ         0.42828
  76        4S          0.43307
  77        4PX         0.18870
  78        4PY         0.23925
  79        4PZ         0.36753
  80        5S         -0.05829
  81        5PX         0.00406
  82        5PY         0.03943
  83        5PZ         0.01919
  84        6D 0        0.00479
  85        6D+1        0.00881
  86        6D-1        0.00486
  87        6D+2        0.01854
  88        6D-2        0.02382
  89 5   C  1S          1.10326
  90        2S          0.88556
  91        2PX         0.23220
  92        2PY         0.24249
  93        2PZ         0.17132
  94        3S          0.77747
  95        3PX         0.55000
  96        3PY         0.53312
  97        3PZ         0.42825
  98        4S          0.43307
  99        4PX         0.26450
 100        4PY         0.16348
 101        4PZ         0.36763
 102        5S         -0.05779
 103        5PX         0.05716
 104        5PY        -0.01372
 105        5PZ         0.01916
 106        6D 0        0.00479
 107        6D+1        0.00288
 108        6D-1        0.01078
 109        6D+2        0.02646
 110        6D-2        0.01590
 111 6   C  1S          1.10326
 112        2S          0.88556
 113        2PX         0.23992
 114        2PY         0.23478
 115        2PZ         0.17132
 116        3S          0.77747
 117        3PX         0.53735
 118        3PY         0.54578
 119        3PZ         0.42828
 120        4S          0.43307
 121        4PX         0.18870
 122        4PY         0.23925
 123        4PZ         0.36753
 124        5S         -0.05829
 125        5PX         0.00406
 126        5PY         0.03943
 127        5PZ         0.01919
 128        6D 0        0.00479
 129        6D+1        0.00881
 130        6D-1        0.00486
 131        6D+2        0.01854
 132        6D-2        0.02382
 133 7   H  1S          0.28017
 134        2S          0.41314
 135        3S          0.08904
 136 8   H  1S          0.28017
 137        2S          0.41314
 138        3S          0.08905
 139 9   H  1S          0.28017
 140        2S          0.41314
 141        3S          0.08905
 142 10  H  1S          0.28017
 143        2S          0.41314
 144        3S          0.08904
 145 11  H  1S          0.28017
 146        2S          0.41314
 147        3S          0.08905
 148 12  H  1S          0.28017
 149        2S          0.41314
 150        3S          0.08905
          Condensed to atoms (all electrons):
 Mulliken charges:
               1
     1  C   -0.217990
     2  C   -0.217474
     3  C   -0.217474
     4  C   -0.217474
     5  C   -0.217990
     6  C   -0.217474
     7  H    0.217650
     8  H    0.217644
     9  H    0.217644
    10  H    0.217650
    11  H    0.217644
    12  H    0.217644
    13  Bq   0.000000
    14  Bq   0.000000
    15  Bq   0.000000
    16  Bq   0.000000
    17  Bq   0.000000
    18  Bq   0.000000
    19  Bq   0.000000
    20  Bq   0.000000
    21  Bq   0.000000
    22  Bq   0.000000
    23  Bq   0.000000
    24  Bq   0.000000
    25  Bq   0.000000
    26  Bq   0.000000
    27  Bq   0.000000
    28  Bq   0.000000
    29  Bq   0.000000
    30  Bq   0.000000
    31  Bq   0.000000
    32  Bq   0.000000
    33  Bq   0.000000
    34  Bq   0.000000
    35  Bq   0.000000
    36  Bq   0.000000
    37  Bq   0.000000
    38  Bq   0.000000
    39  Bq   0.000000
    40  Bq   0.000000
    41  Bq   0.000000
    42  Bq   0.000000
    43  Bq   0.000000
    44  Bq   0.000000
    45  Bq   0.000000
    46  Bq   0.000000
    47  Bq   0.000000
    48  Bq   0.000000
    49  Bq   0.000000
    50  Bq   0.000000
    51  Bq   0.000000
    52  Bq   0.000000
 Sum of Mulliken charges =   0.00000
 Mulliken charges with hydrogens summed into heavy atoms:
               1
     1  C   -0.000340
     2  C    0.000170
     3  C    0.000170
     4  C    0.000170
     5  C   -0.000340
     6  C    0.000170
    13  Bq   0.000000
    14  Bq   0.000000
    15  Bq   0.000000
    16  Bq   0.000000
    17  Bq   0.000000
    18  Bq   0.000000
    19  Bq   0.000000
    20  Bq   0.000000
    21  Bq   0.000000
    22  Bq   0.000000
    23  Bq   0.000000
    24  Bq   0.000000
    25  Bq   0.000000
    26  Bq   0.000000
    27  Bq   0.000000
    28  Bq   0.000000
    29  Bq   0.000000
    30  Bq   0.000000
    31  Bq   0.000000
    32  Bq   0.000000
    33  Bq   0.000000
    34  Bq   0.000000
    35  Bq   0.000000
    36  Bq   0.000000
    37  Bq   0.000000
    38  Bq   0.000000
    39  Bq   0.000000
    40  Bq   0.000000
    41  Bq   0.000000
    42  Bq   0.000000
    43  Bq   0.000000
    44  Bq   0.000000
    45  Bq   0.000000
    46  Bq   0.000000
    47  Bq   0.000000
    48  Bq   0.000000
    49  Bq   0.000000
    50  Bq   0.000000
    51  Bq   0.000000
    52  Bq   0.000000
 Electronic spatial extent (au):  <R**2>=            459.2828
 Charge=              0.0000 electrons
 Dipole moment (field-independent basis, Debye):
    X=              0.0000    Y=              0.0000    Z=              0.0000  Tot=              0.0000
 Quadrupole moment (field-independent basis, Debye-Ang):
   XX=            -32.0068   YY=            -32.0067   ZZ=            -40.5206
   XY=              0.0000   XZ=              0.0000   YZ=              0.0000
 Traceless Quadrupole moment (field-independent basis, Debye-Ang):
   XX=              2.8379   YY=              2.8380   ZZ=             -5.6759
   XY=              0.0000   XZ=              0.0000   YZ=              0.0000
 Octapole moment (field-independent basis, Debye-Ang**2):
  XXX=              0.0000  YYY=              0.0000  ZZZ=              0.0000  XYY=              0.0000
  XXY=              0.0000  XXZ=              0.0000  XZZ=              0.0000  YZZ=              0.0000
  YYZ=              0.0000  XYZ=              0.0000
 Hexadecapole moment (field-independent basis, Debye-Ang**3):
 XXXX=           -275.6681 YYYY=           -275.6729 ZZZZ=            -50.3539 XXXY=              0.0000
 XXXZ=              0.0000 YYYX=              0.0000 YYYZ=              0.0000 ZZZX=              0.0000
 ZZZY=              0.0000 XXYY=            -91.8897 XXZZ=            -65.4507 YYZZ=            -65.4523
 XXYZ=              0.0000 YYXZ=              0.0000 ZZXY=              0.0000
 N-N= 2.035485704919D+02 E-N=-9.455818865944D+02  KE= 2.312555561734D+02
 Orbital energies and kinetic energies (alpha):
                                 1                 2
   1         O               -10.178711         15.955136
   2         O               -10.178482         15.952520
   3         O               -10.178481         15.952520
   4         O               -10.177928         15.955815
   5         O               -10.177927         15.955815
   6         O               -10.177658         15.956948
   7         O                -0.860282          1.495331
   8         O                -0.751746          1.613371
   9         O                -0.751744          1.613367
  10         O                -0.608518          1.479614
  11         O                -0.608517          1.479613
  12         O                -0.530570          0.957278
  13         O                -0.467504          1.307327
  14         O                -0.453069          1.492372
  15         O                -0.428863          1.228252
  16         O                -0.428861          1.228251
  17         O                -0.372410          0.938844
  18         O                -0.351537          1.416036
  19         O                -0.351536          1.416035
  20         O                -0.259171          1.116667
  21         O                -0.259170          1.116665
  22         V                -0.015869          1.238260
  23         V                -0.015858          1.238497
  24         V                 0.004554          0.313086
  25         V                 0.023520          0.258462
  26         V                 0.023530          0.258488
  27         V                 0.045578          0.272549
  28         V                 0.045584          0.272589
  29         V                 0.063354          0.238163
  30         V                 0.072222          0.319112
  31         V                 0.078440          0.291526
  32         V                 0.089988          0.259001
  33         V                 0.090230          0.259073
  34         V                 0.099454          0.237550
  35         V                 0.127531          1.000838
  36         V                 0.140153          0.412543
  37         V                 0.140278          0.412305
  38         V                 0.143108          0.296867
  39         V                 0.143137          0.296900
  40         V                 0.145164          0.339470
  41         V                 0.145513          0.340246
  42         V                 0.169109          0.729461
  43         V                 0.195500          0.602008
  44         V                 0.195516          0.601075
  45         V                 0.200549          0.964183
  46         V                 0.206029          0.521132
  47         V                 0.206200          0.524756
  48         V                 0.207276          0.532547
  49         V                 0.207289          0.532885
  50         V                 0.224353          0.885926
  51         V                 0.234572          0.839323
  52         V                 0.234704          0.835854
  53         V                 0.266446          0.314512
  54         V                 0.283302          0.552434
  55         V                 0.324278          1.392049
  56         V                 0.324283          1.391959
  57         V                 0.324881          1.489630
  58         V                 0.324885          1.489657
  59         V                 0.405820          1.015097
  60         V                 0.457703          1.046822
  61         V                 0.505134          2.129002
  62         V                 0.525889          1.471254
  63         V                 0.525983          1.471260
  64         V                 0.530423          1.417317
  65         V                 0.549283          1.606592
  66         V                 0.549344          1.606438
  67         V                 0.550954          1.855520
  68         V                 0.574661          1.407148
  69         V                 0.574682          1.407245
  70         V                 0.606475          1.710801
  71         V                 0.618554          1.580666
  72         V                 0.618569          1.580674
  73         V                 0.676421          1.654452
  74         V                 0.693124          2.167955
  75         V                 0.693126          2.168035
  76         V                 0.719735          1.814942
  77         V                 0.719758          1.814985
  78         V                 0.738912          2.371159
  79         V                 0.785287          2.124652
  80         V                 0.832106          1.595005
  81         V                 0.832181          1.592693
  82         V                 0.837751          1.948268
  83         V                 0.837761          1.948134
  84         V                 0.863161          2.251425
  85         V                 0.865618          2.513781
  86         V                 0.865644          2.511828
  87         V                 0.872875          2.582551
  88         V                 1.011123          1.973735
  89         V                 1.017026          1.862633
  90         V                 1.017089          1.862603
  91         V                 1.024426          1.940537
  92         V                 1.200839          2.191526
  93         V                 1.200845          2.191521
  94         V                 1.233647          2.268043
  95         V                 1.233648          2.268042
  96         V                 1.278334          2.190910
  97         V                 1.299938          2.555676
  98         V                 1.495809          2.529532
  99         V                 1.512311          2.738079
 100         V                 1.512320          2.738072
 101         V                 1.516316          2.770897
 102         V                 1.733155          3.146498
 103         V                 1.733168          3.146481
 104         V                 1.786254          2.820638
 105         V                 1.786254          2.820624
 106         V                 1.826284          3.004934
 107         V                 1.826314          3.004914
 108         V                 1.925704          3.123845
 109         V                 1.925707          3.123829
 110         V                 1.968406          3.568767
 111         V                 1.968408          3.568790
 112         V                 1.986422          3.148603
 113         V                 2.003800          3.463666
 114         V                 2.230175          3.707533
 115         V                 2.230186          3.707529
 116         V                 2.253559          4.142563
 117         V                 2.253560          4.142563
 118         V                 2.343718          3.384989
 119         V                 2.364264          4.528554
 120         V                 2.394847          4.936746
 121         V                 2.394849          4.936774
 122         V                 2.461746          4.628331
 123         V                 2.633785          6.351061
 124         V                 2.667171          4.059816
 125         V                 2.759523          6.243960
 126         V                 2.759538          6.243946
 127         V                 2.863684          4.989908
 128         V                 2.863711          4.989862
 129         V                 2.880419          6.377177
 130         V                 2.880420          6.377176
 131         V                 3.060363          6.452241
 132         V                 3.080937          7.166120
 133         V                 3.242820          6.692422
 134         V                 3.290693          7.027285
 135         V                 3.290702          7.027225
 136         V                 3.300448          6.662376
 137         V                 3.300460          6.662371
 138         V                 3.486435          5.894539
 139         V                 3.612490          6.963729
 140         V                 3.612495          6.963715
 141         V                 3.730308          6.670180
 142         V                 4.015323          7.414307
 143         V                 4.015328          7.414274
 144         V                 4.786784          7.806956
 145         V                23.271055         60.105732
 146         V                23.840719         60.328345
 147         V                23.840725         60.328349
 148         V                24.038587         60.369394
 149         V                24.038594         60.369398
 150         V                24.150767         60.388397
 Total kinetic energy from orbitals= 2.312555561734D+02
 1\1\GINC-HOGWARTS\SP\RB3LYP\6-311+G(d)\C6H6\ANUJA\05-May-2014\0\\# B3L
 YP/6-311+G* NMR=GIAO POP=FULL SCF(MAXCYCLE=512)\\---------------------
 -------- # Center 1\\0,1\C,0,1.39402,0.,0.\C,0,-0.69701,1.20726,0.\C,0
 ,-0.69701,-1.20726,0.\C,0,0.69701,1.20726,0.\C,0,-1.39402,0.,0.\C,0,0.
 69701,-1.20726,0.\H,0,2.47959,0.,0.\H,0,1.23979,2.14739,0.\H,0,-1.2397
 9,2.14739,0.\H,0,-2.47959,0.,0.\H,0,-1.23979,-2.14739,0.\H,0,1.23979,-
 2.14739,0.\Bq,0,0.,0.,0.\Bq,0,0.,0.,0.1\Bq,0,0.,0.,0.2\Bq,0,0.,0.,0.3\
 Bq,0,0.,0.,0.4\Bq,0,0.,0.,0.5\Bq,0,0.,0.,0.6\Bq,0,0.,0.,0.7\Bq,0,0.,0.
 ,0.8\Bq,0,0.,0.,0.9\Bq,0,0.,0.,1.\Bq,0,0.,0.,1.1\Bq,0,0.,0.,1.2\Bq,0,0
 .,0.,1.3\Bq,0,0.,0.,1.4\Bq,0,0.,0.,1.5\Bq,0,0.,0.,1.6\Bq,0,0.,0.,1.7\B
 q,0,0.,0.,1.8\Bq,0,0.,0.,1.9\Bq,0,0.,0.,2.\Bq,0,0.,0.,2.1\Bq,0,0.,0.,2
 .2\Bq,0,0.,0.,2.3\Bq,0,0.,0.,2.4\Bq,0,0.,0.,2.5\Bq,0,0.,0.,2.6\Bq,0,0.
 ,0.,2.7\Bq,0,0.,0.,2.8\Bq,0,0.,0.,2.9\Bq,0,0.,0.,3.\Bq,0,0.,0.,3.1\Bq,
 0,0.,0.,3.2\Bq,0,0.,0.,3.3\Bq,0,0.,0.,3.4\Bq,0,0.,0.,3.5\Bq,0,0.,0.,3.
 6\Bq,0,0.,0.,3.7\Bq,0,0.,0.,3.8\Bq,0,0.,0.,3.9\\Version=EM64L-G09RevD.
 01\HF=-232.3007023\RMSD=2.713e-09\Dipole=0.,0.,0.\Quadrupole=2.1099439
 ,2.1099564,-4.2199004,0.,0.,0.\PG=C01 [X(C6H6)]\\@


 Everywhere is walking distance if you have the time.
                                    -- Steven Wright
 Job cpu time:       0 days  0 hours  1 minutes 46.4 seconds.
 File lengths (MBytes):  RWF=     12 Int=      0 D2E=      0 Chk=      2 Scr=      1
 Normal termination of Gaussian 09 at Mon May  5 18:17:59 2014.
