 Entering Gaussian System, Link 0=/usr/local/g09/g09
 Input=/home/anuja/input/benz-sigma-guessonly.in
 Output=/home/anuja/output/benz-sigma-guessonly.log
 Initial command:
 /usr/local/g09-D.01/g09/l1.exe /gtmp/Gau-8762.inp -scrdir=/gtmp/
 Entering Link 1 = /usr/local/g09-D.01/g09/l1.exe PID=      8764.
  
 Copyright (c) 1988,1990,1992,1993,1995,1998,2003,2009,2013,
            Gaussian, Inc.  All Rights Reserved.
  
 This is part of the Gaussian(R) 09 program.  It is based on
 the Gaussian(R) 03 system (copyright 2003, Gaussian, Inc.),
 the Gaussian(R) 98 system (copyright 1998, Gaussian, Inc.),
 the Gaussian(R) 94 system (copyright 1995, Gaussian, Inc.),
 the Gaussian 92(TM) system (copyright 1992, Gaussian, Inc.),
 the Gaussian 90(TM) system (copyright 1990, Gaussian, Inc.),
 the Gaussian 88(TM) system (copyright 1988, Gaussian, Inc.),
 the Gaussian 86(TM) system (copyright 1986, Carnegie Mellon
 University), and the Gaussian 82(TM) system (copyright 1983,
 Carnegie Mellon University). Gaussian is a federally registered
 trademark of Gaussian, Inc.
  
 This software contains proprietary and confidential information,
 including trade secrets, belonging to Gaussian, Inc.
  
 This software is provided under written license and may be
 used, copied, transmitted, or stored only in accord with that
 written license.
  
 The following legend is applicable only to US Government
 contracts under FAR:
  
                    RESTRICTED RIGHTS LEGEND
  
 Use, reproduction and disclosure by the US Government is
 subject to restrictions as set forth in subparagraphs (a)
 and (c) of the Commercial Computer Software - Restricted
 Rights clause in FAR 52.227-19.
  
 Gaussian, Inc.
 340 Quinnipiac St., Bldg. 40, Wallingford CT 06492
  
  
 ---------------------------------------------------------------
 Warning -- This program may not be used in any manner that
 competes with the business of Gaussian, Inc. or will provide
 assistance to any competitor of Gaussian, Inc.  The licensee
 of this program is prohibited from giving any competitor of
 Gaussian, Inc. access to this program.  By using this program,
 the user acknowledges that Gaussian, Inc. is engaged in the
 business of creating and licensing software in the field of
 computational chemistry and represents and warrants to the
 licensee that it is not a competitor of Gaussian, Inc. and that
 it will not use this program in any manner prohibited above.
 ---------------------------------------------------------------
  

 Cite this work as:
 Gaussian 09, Revision D.01,
 M. J. Frisch, G. W. Trucks, H. B. Schlegel, G. E. Scuseria, 
 M. A. Robb, J. R. Cheeseman, G. Scalmani, V. Barone, B. Mennucci, 
 G. A. Petersson, H. Nakatsuji, M. Caricato, X. Li, H. P. Hratchian, 
 A. F. Izmaylov, J. Bloino, G. Zheng, J. L. Sonnenberg, M. Hada, 
 M. Ehara, K. Toyota, R. Fukuda, J. Hasegawa, M. Ishida, T. Nakajima, 
 Y. Honda, O. Kitao, H. Nakai, T. Vreven, J. A. Montgomery, Jr., 
 J. E. Peralta, F. Ogliaro, M. Bearpark, J. J. Heyd, E. Brothers, 
 K. N. Kudin, V. N. Staroverov, T. Keith, R. Kobayashi, J. Normand, 
 K. Raghavachari, A. Rendell, J. C. Burant, S. S. Iyengar, J. Tomasi, 
 M. Cossi, N. Rega, J. M. Millam, M. Klene, J. E. Knox, J. B. Cross, 
 V. Bakken, C. Adamo, J. Jaramillo, R. Gomperts, R. E. Stratmann, 
 O. Yazyev, A. J. Austin, R. Cammi, C. Pomelli, J. W. Ochterski, 
 R. L. Martin, K. Morokuma, V. G. Zakrzewski, G. A. Voth, 
 P. Salvador, J. J. Dannenberg, S. Dapprich, A. D. Daniels, 
 O. Farkas, J. B. Foresman, J. V. Ortiz, J. Cioslowski, 
 and D. J. Fox, Gaussian, Inc., Wallingford CT, 2013.
 
 ******************************************
 Gaussian 09:  EM64L-G09RevD.01 24-Apr-2013
                 5-May-2014 
 ******************************************
 ------------
 # guess=only
 ------------
 1/38=1/1;
 2/12=2,17=6,18=5,40=1/2;
 3/11=9,16=1,25=1,30=1,89=1/1,2;
 4//1;
 6/7=3,28=1/1;
 99/5=2/99;
 ----------------------------------------------
 ----------------------------- sigma only model
 ----------------------------------------------
 Symbolic Z-matrix:
 Charge =  0 Multiplicity = 1
 6
 6                    1     1.39402 
 6                    2     1.39402  1     119.99993 
 6                    3     1.39402  2     119.99993  1     0.       0
 6                    4     1.39402  3     120.00013  2     0.       0
 6                    5     1.39402  4     119.99993  3     0.       0
 1                    6     1.08557  5     119.9998  4     180.     0
 1                    5     1.08557  4     120.00026  3     180.     0
 1                    4     1.08557  3     119.99993  2     180.     0
 1                    3     1.08557  2     119.9998  1     180.     0
 1                    2     1.08557  1     120.00026  3     180.     0
 1                    1     1.08557  2     119.99993  3     180.     0
 0                    1     1.39402  2     60.00007  3     0.       0
 0                    1     1.7156   2     66.02887  3     39.63576  0
 1                    1     1.       13    95.      14    0.       0
 1                    3     1.       13    95.      14    0.       0
 1                    5     1.       13    95.      14    0.       0
 1                    2     1.       13    95.      14    0.       0
 1                    4     1.       13    95.      14    0.       0
 1                    6     1.       13    95.      14    0.       0
 
                          Input orientation:                          
 ---------------------------------------------------------------------
 Center     Atomic      Atomic             Coordinates (Angstroms)
 Number     Number       Type             X           Y           Z
 ---------------------------------------------------------------------
      1          6           0        0.000000    0.000000    0.000000
      2          6           0        0.000000    0.000000    1.394023
      3          6           0        1.207258    0.000000    2.091031
      4          6           0        2.414515    0.000000    1.394017
      5          6           0        2.414515    0.000000   -0.000006
      6          6           0        1.207258    0.000000   -0.697014
      7          1           0        1.207260    0.000000   -1.782581
      8          1           0        3.354641    0.000000   -0.542793
      9          1           0        3.354647    0.000000    1.936801
     10          1           0        1.207255    0.000000    3.176598
     11          1           0       -0.940126    0.000000    1.936810
     12          1           0       -0.940132    0.000000   -0.542784
     13          0           0        1.207258    0.000000    0.697009
     14          0           0        1.207258   -1.000000    0.697009
     15          1           0       -0.075479   -0.996195   -0.043578
     16          1           0        1.207258   -0.996195    2.178187
     17          1           0        2.489994   -0.996195   -0.043584
     18          1           0       -0.075479   -0.996195    1.437601
     19          1           0        2.489994   -0.996195    1.437595
     20          1           0        1.207258   -0.996195   -0.784170
 ---------------------------------------------------------------------
                    Distance matrix (angstroms):
                    1          2          3          4          5
     1  C    0.000000
     2  C    1.394023   0.000000
     3  C    2.414515   1.394020   0.000000
     4  C    2.788040   2.414515   1.394023   0.000000
     5  C    2.414515   2.788046   2.414520   1.394023   0.000000
     6  C    1.394023   2.414520   2.788046   2.414515   1.394020
     7  H    2.152921   3.398277   3.873612   3.398270   2.152914
     8  H    3.398270   3.873612   3.398277   2.152921   1.085566
     9  H    3.873610   3.398274   2.152921   1.085570   2.152921
    10  H    3.398270   2.152914   1.085566   2.152921   3.398277
    11  H    2.152921   1.085566   2.152914   3.398270   3.873612
    12  H    1.085570   2.152921   3.398274   3.873610   3.398274
    13  Bq   1.394020   1.394023   1.394023   1.394020   1.394023
    14  Bq   1.715602   1.715605   1.715605   1.715602   1.715605
    15  H    1.000000   1.750656   2.682233   3.042886   2.682233
    16  H    2.682233   1.750654   1.000000   1.750656   2.682238
    17  H    2.682233   3.042891   2.682238   1.750656   1.000000
    18  H    1.750656   1.000000   1.750654   2.682233   3.042891
    19  H    3.042886   2.682233   1.750656   1.000000   1.750656
    20  H    1.750656   2.682238   3.042891   2.682233   1.750654
                    6          7          8          9         10
     6  C    0.000000
     7  H    1.085566   0.000000
     8  H    2.152914   2.479580   0.000000
     9  H    3.398274   4.294773   2.479594   0.000000
    10  H    3.873612   4.959179   4.294780   2.479594   0.000000
    11  H    3.398277   4.294780   4.959179   4.294773   2.479580
    12  H    2.152921   2.479594   4.294773   4.959180   4.294773
    13  Bq   1.394023   2.479589   2.479589   2.479590   2.479589
    14  Bq   1.715605   2.673642   2.673642   2.673643   2.673642
    15  H    1.750656   2.379486   3.606569   4.084124   3.606569
    16  H    3.042891   4.084126   3.606576   2.379486   1.410400
    17  H    1.750654   2.379479   1.410400   2.379486   3.606576
    18  H    2.682238   3.606576   4.084126   3.606573   2.379479
    19  H    2.682233   3.606569   2.379486   1.410402   2.379486
    20  H    1.000000   1.410400   2.379479   3.606573   4.084126
                   11         12         13         14         15
    11  H    0.000000
    12  H    2.479594   0.000000
    13  Bq   2.479589   2.479590   0.000000
    14  Bq   2.673642   2.673643   1.000000   0.000000
    15  H    2.379486   1.410402   1.785017   1.481181   0.000000
    16  H    2.379479   3.606573   1.785019   1.481183   2.565473
    17  H    4.084126   3.606573   1.785019   1.481183   2.565473
    18  H    1.410400   2.379486   1.785019   1.481183   1.481179
    19  H    3.606569   4.084124   1.785017   1.481181   2.962351
    20  H    3.606576   2.379486   1.785019   1.481183   1.481179
                   16         17         18         19         20
    16  H    0.000000
    17  H    2.565478   0.000000
    18  H    1.481176   2.962357   0.000000
    19  H    1.481179   1.481179   2.565473   0.000000
    20  H    2.962357   1.481176   2.565478   2.565473   0.000000
 Symmetry turned off:
 Cannot cope with ghost atoms or with translation vectors.
 Stoichiometry    C6H12
 Framework group  C1[X(C6H12)]
 NUMDOF-- NAT=    18 NAtoms=    20
 Deg. of freedom     0
 Full point group                 C1      NOp   1
 Rotational constants (GHZ):      5.0161422      5.0161174      2.6548235
 Standard basis: STO-3G (5D, 7F)
 Warning:  center  13 has no basis functions!
 Warning:  center  14 has no basis functions!
    42 basis functions,   126 primitive gaussians,    42 cartesian basis functions
    24 alpha electrons       24 beta electrons
       nuclear repulsion energy       276.2032655044 Hartrees.
 NAtoms=   20 NActive=   20 NUniq=   20 SFac= 1.00D+00 NAtFMM=   60 NAOKFM=F Big=F
 Integral buffers will be    131072 words long.
 Raffenetti 1 integral format.
 Two-electron integral symmetry is turned off.
 One-electron integrals computed using PRISM.
 NBasis=    42 RedAO= T EigKep=  1.23D-01  NBF=    42
 NBsUse=    42 1.00D-06 EigRej= -1.00D+00 NBFU=    42
 ExpMin= 1.69D-01 ExpMax= 7.16D+01 ExpMxC= 7.16D+01 IAcc=1 IRadAn=         1 AccDes= 0.00D+00
 Harris functional with IExCor=  205 and IRadAn=       1 diagonalized for initial guess.
 HarFok:  IExCor=  205 AccDes= 0.00D+00 IRadAn=         1 IDoV= 1 UseB2=F ITyADJ=14
 ICtDFT=  3500011 ScaDFX=  1.000000  1.000000  1.000000  1.000000
 FoFCou: FMM=F IPFlag=           0 FMFlag=      100000 FMFlg1=           0
         NFxFlg=           0 DoJE=T BraDBF=F KetDBF=T FulRan=T
         wScrn=  0.000000 ICntrl=     500 IOpCl=  0 I1Cent=   200000004 NGrid=           0
         NMat0=    1 NMatS0=      1 NMatT0=    0 NMatD0=    1 NMtDS0=    0 NMtDT0=    0
 Symmetry not used in FoFCou.

 **********************************************************************

            Population analysis using the SCF density.

 **********************************************************************

 Alpha  occ. eigenvalues --   -9.85741  -9.85672  -9.85672  -9.85542  -9.85542
 Alpha  occ. eigenvalues --   -9.85454  -1.05029  -0.95119  -0.95118  -0.79525
 Alpha  occ. eigenvalues --   -0.79524  -0.68534  -0.63019  -0.62588  -0.62516
 Alpha  occ. eigenvalues --   -0.56517  -0.56515  -0.55512  -0.55512  -0.49638
 Alpha  occ. eigenvalues --   -0.49637  -0.39689  -0.39689  -0.28975
 Alpha virt. eigenvalues --    0.01254   0.11010   0.11011   0.11371   0.11371
 Alpha virt. eigenvalues --    0.14147   0.14148   0.15681   0.17409   0.30907
 Alpha virt. eigenvalues --    0.30908   0.35594   0.35595   0.40080   0.45590
 Alpha virt. eigenvalues --    0.51499   0.51500   0.69028
     Molecular Orbital Coefficients:
                           1         2         3         4         5
                           O         O         O         O         O
     Eigenvalues --    -9.85741  -9.85672  -9.85672  -9.85542  -9.85542
   1 1   C  1S         -0.40222  -0.00275   0.56944   0.05023   0.56841
   2        2S         -0.03694  -0.00021   0.04387   0.00258   0.02922
   3        2PX        -0.00407   0.00371   0.00288   0.00357  -0.00168
   4        2PY         0.00350   0.00002  -0.00491  -0.00041  -0.00459
   5        2PZ        -0.00235  -0.00645   0.00162  -0.00646  -0.00022
   6 2   C  1S          0.40238   0.49459  -0.28244   0.51730   0.24060
   7        2S          0.03695   0.03810  -0.02176   0.02659   0.01236
   8        2PX         0.00407   0.00433   0.00181  -0.00280   0.00278
   9        2PY        -0.00350  -0.00426   0.00243  -0.00418  -0.00194
  10        2PZ        -0.00235   0.00176   0.00642  -0.00199   0.00615
  11 3   C  1S         -0.40238  -0.49182  -0.28720   0.46709  -0.32758
  12        2S         -0.03695  -0.03789  -0.02212   0.02401  -0.01684
  13        2PX         0.00000   0.00375  -0.00643   0.00425   0.00606
  14        2PY         0.00350   0.00424   0.00247  -0.00377   0.00264
  15        2PZ         0.00470   0.00285   0.00167   0.00129  -0.00090
  16 4   C  1S          0.40222  -0.00275   0.56944  -0.05023  -0.56841
  17        2S          0.03694  -0.00021   0.04387  -0.00258  -0.02922
  18        2PX        -0.00407  -0.00371  -0.00288   0.00357  -0.00168
  19        2PY        -0.00350   0.00002  -0.00491   0.00041   0.00459
  20        2PZ        -0.00235   0.00645  -0.00162  -0.00646  -0.00022
  21 5   C  1S         -0.40238   0.49459  -0.28244  -0.51730  -0.24060
  22        2S         -0.03695   0.03810  -0.02176  -0.02659  -0.01236
  23        2PX         0.00407  -0.00433  -0.00181  -0.00280   0.00278
  24        2PY         0.00350  -0.00426   0.00243   0.00418   0.00194
  25        2PZ        -0.00235  -0.00176  -0.00642  -0.00199   0.00615
  26 6   C  1S          0.40238  -0.49182  -0.28720  -0.46709   0.32758
  27        2S          0.03695  -0.03789  -0.02212  -0.02401   0.01684
  28        2PX         0.00000  -0.00375   0.00643   0.00425   0.00606
  29        2PY        -0.00350   0.00424   0.00247   0.00377  -0.00264
  30        2PZ         0.00470  -0.00285  -0.00167   0.00129  -0.00090
  31 7   H  1S         -0.00500   0.00588   0.00343   0.00523  -0.00367
  32 8   H  1S          0.00500  -0.00591   0.00337   0.00580   0.00270
  33 9   H  1S         -0.00500   0.00003  -0.00680   0.00056   0.00637
  34 10  H  1S          0.00500   0.00588   0.00343  -0.00523   0.00367
  35 11  H  1S         -0.00500  -0.00591   0.00337  -0.00580  -0.00270
  36 12  H  1S          0.00500   0.00003  -0.00680  -0.00056  -0.00637
  37 13  H  1S          0.00671   0.00004  -0.00913  -0.00071  -0.00805
  38 14  H  1S          0.00671   0.00788   0.00460  -0.00661   0.00464
  39 15  H  1S          0.00671  -0.00793   0.00453   0.00733   0.00341
  40 16  H  1S         -0.00671  -0.00793   0.00453  -0.00733  -0.00341
  41 17  H  1S         -0.00671   0.00004  -0.00913   0.00071   0.00805
  42 18  H  1S         -0.00671   0.00788   0.00460   0.00661  -0.00464
                           6         7         8         9        10
                           O         O         O         O         O
     Eigenvalues --    -9.85454  -1.05029  -0.95119  -0.95118  -0.79525
   1 1   C  1S          0.40399  -0.10111  -0.11512   0.08482  -0.10759
   2        2S          0.01582   0.23688   0.28941  -0.21323   0.30655
   3        2PX        -0.00253   0.04962  -0.00760  -0.06390   0.00713
   4        2PY        -0.00308  -0.06374  -0.08393   0.06184  -0.09141
   5        2PZ        -0.00146   0.02865   0.07226   0.06715  -0.11244
   6 2   C  1S          0.40384  -0.10111  -0.13101  -0.05729   0.10066
   7        2S          0.01581   0.23688   0.32937   0.14402  -0.28682
   8        2PX        -0.00253   0.04962   0.00671   0.06400  -0.02110
   9        2PY        -0.00308  -0.06374  -0.09552  -0.04177   0.08552
  10        2PZ         0.00146  -0.02865  -0.05564   0.08146  -0.13021
  11 3   C  1S          0.40386  -0.10111  -0.01590  -0.14210   0.00692
  12        2S          0.01581   0.23687   0.03996   0.35725  -0.01973
  13        2PX         0.00000   0.00000  -0.11123   0.01244   0.22425
  14        2PY        -0.00308  -0.06375  -0.01159  -0.10361   0.00588
  15        2PZ         0.00293  -0.05729  -0.00408  -0.03646  -0.00322
  16 4   C  1S          0.40399  -0.10111   0.11512  -0.08482  -0.10759
  17        2S          0.01582   0.23688  -0.28941   0.21323   0.30655
  18        2PX         0.00253  -0.04962  -0.00760  -0.06390  -0.00713
  19        2PY        -0.00308  -0.06374   0.08393  -0.06184  -0.09141
  20        2PZ         0.00146  -0.02865   0.07226   0.06715   0.11244
  21 5   C  1S          0.40384  -0.10111   0.13101   0.05729   0.10066
  22        2S          0.01581   0.23688  -0.32937  -0.14402  -0.28682
  23        2PX         0.00253  -0.04962   0.00671   0.06400   0.02110
  24        2PY        -0.00308  -0.06374   0.09552   0.04177   0.08552
  25        2PZ        -0.00146   0.02865  -0.05564   0.08146   0.13021
  26 6   C  1S          0.40386  -0.10111   0.01590   0.14210   0.00692
  27        2S          0.01581   0.23687  -0.03996  -0.35725  -0.01973
  28        2PX         0.00000   0.00000  -0.11123   0.01244  -0.22425
  29        2PY        -0.00308  -0.06375   0.01159   0.10361   0.00588
  30        2PZ        -0.00293   0.05729  -0.00408  -0.03646   0.00322
  31 7   H  1S         -0.00462   0.02049  -0.00505  -0.04511  -0.00489
  32 8   H  1S         -0.00462   0.02049  -0.04159  -0.01819  -0.07108
  33 9   H  1S         -0.00462   0.02049  -0.03654   0.02693   0.07597
  34 10  H  1S         -0.00462   0.02049   0.00505   0.04511  -0.00489
  35 11  H  1S         -0.00462   0.02049   0.04159   0.01819  -0.07108
  36 12  H  1S         -0.00462   0.02049   0.03654  -0.02693   0.07597
  37 13  H  1S         -0.00518   0.04883   0.07786  -0.05737   0.10920
  38 14  H  1S         -0.00518   0.04883   0.01075   0.09611  -0.00703
  39 15  H  1S         -0.00518   0.04883  -0.08861  -0.03874  -0.10217
  40 16  H  1S         -0.00518   0.04883   0.08861   0.03874  -0.10217
  41 17  H  1S         -0.00518   0.04883  -0.07786   0.05737   0.10920
  42 18  H  1S         -0.00518   0.04883  -0.01075  -0.09611  -0.00703
                          11        12        13        14        15
                           O         O         O         O         O
     Eigenvalues --    -0.79524  -0.68534  -0.63019  -0.62588  -0.62516
   1 1   C  1S          0.05412   0.01171  -0.07851   0.00000  -0.03988
   2        2S         -0.15420  -0.02941   0.26968   0.00000   0.14411
   3        2PX         0.12213  -0.19340  -0.13465  -0.16607  -0.12405
   4        2PY         0.04598  -0.14032  -0.08612   0.00000   0.18924
   5        2PZ        -0.16120  -0.11166  -0.07773   0.28763  -0.07162
   6 2   C  1S          0.06611   0.01171   0.07851   0.00000  -0.03988
   7        2S         -0.18838  -0.02941  -0.26968   0.00000   0.14411
   8        2PX         0.12050  -0.19340   0.13465  -0.16607  -0.12405
   9        2PY         0.05617  -0.14032   0.08612   0.00000   0.18924
  10        2PZ         0.14722   0.11166  -0.07774  -0.28763   0.07162
  11 3   C  1S         -0.12023   0.01171  -0.07851   0.00000  -0.03988
  12        2S          0.34259  -0.02941   0.26968   0.00000   0.14410
  13        2PX         0.01292   0.00000   0.00000   0.33213   0.00000
  14        2PY        -0.10215  -0.14031  -0.08612   0.00000   0.18925
  15        2PZ         0.05594   0.22327   0.15546   0.00000   0.14323
  16 4   C  1S          0.05412   0.01171   0.07851   0.00000  -0.03988
  17        2S         -0.15420  -0.02941  -0.26968   0.00000   0.14411
  18        2PX        -0.12213   0.19340  -0.13465  -0.16607   0.12405
  19        2PY         0.04598  -0.14032   0.08612   0.00000   0.18924
  20        2PZ         0.16120   0.11166  -0.07773   0.28763   0.07162
  21 5   C  1S          0.06611   0.01171  -0.07851   0.00000  -0.03988
  22        2S         -0.18838  -0.02941   0.26968   0.00000   0.14411
  23        2PX        -0.12050   0.19340   0.13465  -0.16607   0.12405
  24        2PY         0.05617  -0.14032  -0.08612   0.00000   0.18924
  25        2PZ        -0.14722  -0.11166  -0.07774  -0.28763  -0.07162
  26 6   C  1S         -0.12023   0.01171   0.07851   0.00000  -0.03988
  27        2S          0.34259  -0.02941  -0.26968   0.00000   0.14410
  28        2PX        -0.01292   0.00000   0.00000   0.33213   0.00000
  29        2PY        -0.10215  -0.14031   0.08612   0.00000   0.18925
  30        2PZ        -0.05594  -0.22327   0.15546   0.00000  -0.14323
  31 7   H  1S          0.08490   0.06348  -0.14373   0.00000   0.11460
  32 8   H  1S         -0.04668   0.06349   0.14375  -0.00001   0.11461
  33 9   H  1S         -0.03821   0.06349  -0.14374  -0.00001   0.11460
  34 10  H  1S          0.08490   0.06348   0.14373   0.00000   0.11460
  35 11  H  1S         -0.04668   0.06349  -0.14375   0.00001   0.11461
  36 12  H  1S         -0.03821   0.06349   0.14374   0.00001   0.11460
  37 13  H  1S         -0.05493   0.09785   0.11922   0.00000  -0.09290
  38 14  H  1S          0.12204   0.09784   0.11922   0.00000  -0.09290
  39 15  H  1S         -0.06710   0.09785   0.11922   0.00000  -0.09290
  40 16  H  1S         -0.06710   0.09785  -0.11922   0.00000  -0.09290
  41 17  H  1S         -0.05493   0.09785  -0.11922   0.00000  -0.09290
  42 18  H  1S          0.12204   0.09784  -0.11922   0.00000  -0.09290
                          16        17        18        19        20
                           O         O         O         O         O
     Eigenvalues --    -0.56517  -0.56515  -0.55512  -0.55512  -0.49638
   1 1   C  1S         -0.03317  -0.02114   0.00763  -0.03911   0.00781
   2        2S          0.10347   0.06594  -0.02759   0.14139  -0.04720
   3        2PX         0.23468   0.22140   0.01420  -0.17818   0.31544
   4        2PY         0.16065   0.10238  -0.06021   0.30835   0.06722
   5        2PZ         0.21087   0.00940   0.05425  -0.09384  -0.04609
   6 2   C  1S         -0.03488   0.01819  -0.03004  -0.02618  -0.00849
   7        2S          0.10879  -0.05673   0.10860   0.09465   0.05134
   8        2PX         0.25296  -0.20026  -0.12062  -0.13190  -0.31232
   9        2PY         0.16890  -0.08808   0.23687   0.20639  -0.07312
  10        2PZ        -0.21090  -0.00889   0.10043   0.04075   0.00323
  11 3   C  1S         -0.00170   0.03932  -0.03767   0.01293   0.00069
  12        2S          0.00531  -0.12264   0.13620  -0.04674  -0.00414
  13        2PX        -0.12142  -0.00526  -0.01321  -0.03851   0.35099
  14        2PY         0.00826  -0.19046   0.29708  -0.10196   0.00590
  15        2PZ        -0.01585   0.36544   0.19410  -0.06662  -0.02196
  16 4   C  1S          0.03317   0.02114  -0.00763   0.03911   0.00781
  17        2S         -0.10347  -0.06594   0.02759  -0.14139  -0.04720
  18        2PX         0.23468   0.22140   0.01420  -0.17818  -0.31544
  19        2PY        -0.16065  -0.10238   0.06021  -0.30835   0.06722
  20        2PZ         0.21087   0.00940   0.05425  -0.09384   0.04609
  21 5   C  1S          0.03488  -0.01819   0.03004   0.02618  -0.00849
  22        2S         -0.10879   0.05673  -0.10860  -0.09465   0.05134
  23        2PX         0.25296  -0.20026  -0.12062  -0.13190   0.31232
  24        2PY        -0.16890   0.08808  -0.23687  -0.20639  -0.07312
  25        2PZ        -0.21090  -0.00889   0.10043   0.04075  -0.00323
  26 6   C  1S          0.00170  -0.03932   0.03767  -0.01293   0.00069
  27        2S         -0.00531   0.12264  -0.13620   0.04674  -0.00414
  28        2PX        -0.12142  -0.00526  -0.01321  -0.03851  -0.35099
  29        2PY        -0.00826   0.19046  -0.29708   0.10196   0.00590
  30        2PZ        -0.01585   0.36544   0.19410  -0.06662   0.02196
  31 7   H  1S          0.00625  -0.14409  -0.16994   0.05832  -0.01603
  32 8   H  1S          0.12800  -0.06663  -0.13544  -0.11793   0.19870
  33 9   H  1S          0.12175   0.07745   0.03448  -0.17625  -0.18267
  34 10  H  1S         -0.00625   0.14409   0.16994  -0.05832  -0.01603
  35 11  H  1S         -0.12800   0.06663   0.13544   0.11793   0.19870
  36 12  H  1S         -0.12175  -0.07745  -0.03448   0.17625  -0.18267
  37 13  H  1S         -0.11062  -0.07048   0.03449  -0.17673  -0.07441
  38 14  H  1S         -0.00569   0.13112  -0.17025   0.05843  -0.00653
  39 15  H  1S          0.11630  -0.06063   0.13575   0.11830   0.08094
  40 16  H  1S         -0.11630   0.06063  -0.13575  -0.11830   0.08094
  41 17  H  1S          0.11062   0.07048  -0.03449   0.17673  -0.07441
  42 18  H  1S          0.00569  -0.13112   0.17025  -0.05843  -0.00653
                          21        22        23        24        25
                           O         O         O         O         V
     Eigenvalues --    -0.49637  -0.39689  -0.39689  -0.28975   0.01254
   1 1   C  1S         -0.00530   0.00840   0.01275   0.00373   0.01414
   2        2S          0.03204  -0.02220  -0.03370  -0.03310  -0.09846
   3        2PX        -0.00142   0.11003   0.07916  -0.10349  -0.09018
   4        2PY        -0.04562  -0.23046  -0.34996   0.31835   0.32194
   5        2PZ        -0.33706  -0.02974   0.10712  -0.05975  -0.05205
   6 2   C  1S         -0.00411   0.00685  -0.01365  -0.00373   0.01414
   7        2S          0.02486  -0.01809   0.03607   0.03310  -0.09845
   8        2PX         0.04430   0.09999  -0.09151   0.10348  -0.09018
   9        2PY        -0.03540  -0.18784   0.37457  -0.31835   0.32194
  10        2PZ         0.34018   0.04210   0.10290  -0.05975   0.05205
  11 3   C  1S          0.00941  -0.01524   0.00090   0.00373   0.01414
  12        2S         -0.05689   0.04027  -0.00237  -0.03310  -0.09842
  13        2PX        -0.02556  -0.00568  -0.09654   0.00000   0.00000
  14        2PY         0.08103   0.41831  -0.02461   0.31834   0.32195
  15        2PZ        -0.30151   0.14596  -0.00859   0.11949   0.10411
  16 4   C  1S         -0.00530   0.00840   0.01275  -0.00373   0.01414
  17        2S          0.03204  -0.02220  -0.03370   0.03310  -0.09846
  18        2PX         0.00142  -0.11003  -0.07916  -0.10349   0.09018
  19        2PY        -0.04562  -0.23046  -0.34996  -0.31835   0.32194
  20        2PZ         0.33706   0.02974  -0.10712  -0.05975   0.05205
  21 5   C  1S         -0.00411   0.00685  -0.01365   0.00373   0.01414
  22        2S          0.02486  -0.01809   0.03607  -0.03310  -0.09845
  23        2PX        -0.04430  -0.09999   0.09151   0.10348   0.09018
  24        2PY        -0.03540  -0.18784   0.37457   0.31835   0.32194
  25        2PZ        -0.34018  -0.04210  -0.10290  -0.05975  -0.05205
  26 6   C  1S          0.00941  -0.01524   0.00090  -0.00373   0.01414
  27        2S         -0.05689   0.04027  -0.00237   0.03310  -0.09842
  28        2PX         0.02556   0.00568   0.09654   0.00000   0.00000
  29        2PY         0.08103   0.41831  -0.02461  -0.31834   0.32195
  30        2PZ         0.30151  -0.14596   0.00859   0.11949  -0.10411
  31 7   H  1S         -0.22019   0.17881  -0.01052  -0.16706  -0.25187
  32 8   H  1S          0.09620  -0.08030   0.16011   0.16706  -0.25185
  33 9   H  1S          0.12397  -0.09851  -0.14959  -0.16706  -0.25185
  34 10  H  1S         -0.22019   0.17881  -0.01052   0.16706  -0.25187
  35 11  H  1S          0.09620  -0.08030   0.16011  -0.16706  -0.25185
  36 12  H  1S          0.12397  -0.09851  -0.14959   0.16706  -0.25185
  37 13  H  1S          0.05050   0.16609   0.25220  -0.25443   0.42569
  38 14  H  1S         -0.08970  -0.30145   0.01773  -0.25442   0.42572
  39 15  H  1S          0.03918   0.13538  -0.26993  -0.25443   0.42569
  40 16  H  1S          0.03918   0.13538  -0.26993   0.25443   0.42569
  41 17  H  1S          0.05050   0.16609   0.25220   0.25443   0.42569
  42 18  H  1S         -0.08970  -0.30145   0.01773   0.25442   0.42572
                          26        27        28        29        30
                           V         V         V         V         V
     Eigenvalues --     0.11010   0.11011   0.11371   0.11371   0.14147
   1 1   C  1S          0.00077  -0.00158  -0.12550   0.01213  -0.00241
   2        2S         -0.00037   0.00078   0.74776  -0.07227   0.00704
   3        2PX         0.18942   0.06609   0.21112  -0.22186  -0.48940
   4        2PY        -0.20977   0.43323   0.37342  -0.03613   0.03998
   5        2PZ        -0.30484  -0.16242   0.16646   0.33280  -0.03547
   6 2   C  1S         -0.00099  -0.00145   0.07326   0.10261  -0.00220
   7        2S          0.00048   0.00070  -0.43653  -0.61141   0.00642
   8        2PX        -0.17785   0.09283   0.02869  -0.30491  -0.49028
   9        2PY         0.27030   0.39827  -0.21796  -0.30535   0.03637
  10        2PZ        -0.27810   0.20486   0.36030  -0.09299  -0.04625
  11 3   C  1S         -0.00175   0.00013   0.05224  -0.11476   0.00022
  12        2S          0.00085  -0.00005  -0.31129   0.68378  -0.00065
  13        2PX         0.02894   0.39753  -0.36496  -0.16615  -0.49918
  14        2PY         0.48006  -0.03495  -0.15542   0.34141  -0.00363
  15        2PZ         0.02659  -0.00194   0.11074  -0.24326  -0.04009
  16 4   C  1S         -0.00077   0.00158  -0.12550   0.01213   0.00241
  17        2S          0.00037  -0.00078   0.74776  -0.07227  -0.00704
  18        2PX         0.18942   0.06609  -0.21112   0.22186  -0.48940
  19        2PY         0.20977  -0.43323   0.37342  -0.03613  -0.03998
  20        2PZ        -0.30484  -0.16242  -0.16646  -0.33280  -0.03547
  21 5   C  1S          0.00099   0.00145   0.07326   0.10261   0.00220
  22        2S         -0.00048  -0.00070  -0.43653  -0.61141  -0.00642
  23        2PX        -0.17785   0.09283  -0.02869   0.30491  -0.49028
  24        2PY        -0.27030  -0.39827  -0.21796  -0.30535  -0.03637
  25        2PZ        -0.27810   0.20486  -0.36030   0.09299  -0.04625
  26 6   C  1S          0.00175  -0.00013   0.05224  -0.11476  -0.00022
  27        2S         -0.00085   0.00005  -0.31129   0.68378   0.00065
  28        2PX         0.02894   0.39753   0.36496   0.16615  -0.49918
  29        2PY        -0.48006   0.03495  -0.15542   0.34141   0.00363
  30        2PZ         0.02659  -0.00194  -0.11074   0.24326  -0.04009
  31 7   H  1S          0.21035  -0.01531   0.10931  -0.24011  -0.04895
  32 8   H  1S          0.11844   0.17447   0.15328   0.21467   0.49018
  33 9   H  1S         -0.09192   0.18980  -0.26256   0.02537   0.53912
  34 10  H  1S         -0.21035   0.01531   0.10931  -0.24011   0.04895
  35 11  H  1S         -0.11844  -0.17447   0.15328   0.21467  -0.49018
  36 12  H  1S          0.09192  -0.18980  -0.26256   0.02537  -0.53912
  37 13  H  1S         -0.27322   0.56427   0.28873  -0.02794   0.04745
  38 14  H  1S          0.62529  -0.04552  -0.12016   0.26396  -0.00431
  39 15  H  1S         -0.35207  -0.51874  -0.16852  -0.23611  -0.04315
  40 16  H  1S          0.35207   0.51874  -0.16852  -0.23611   0.04315
  41 17  H  1S          0.27322  -0.56427   0.28873  -0.02794  -0.04745
  42 18  H  1S         -0.62529   0.04552  -0.12016   0.26396   0.00431
                          31        32        33        34        35
                           V         V         V         V         V
     Eigenvalues --     0.14148   0.15681   0.17409   0.30907   0.30908
   1 1   C  1S          0.00114   0.06597  -0.10207   0.00367   0.00171
   2        2S         -0.00333  -0.42225   0.60831  -0.00452  -0.00210
   3        2PX        -0.04574   0.23640   0.05933   0.55848   0.32921
   4        2PY        -0.01889   0.14870   0.29527  -0.06152  -0.02862
   5        2PZ         0.49653   0.13651   0.03427   0.38373   0.05832
   6 2   C  1S         -0.00152   0.06597   0.10206  -0.00332   0.00232
   7        2S          0.00444  -0.42224  -0.60830   0.00409  -0.00286
   8        2PX        -0.03494   0.23639  -0.05935  -0.49208   0.42207
   9        2PY         0.02518   0.14870  -0.29528   0.05554  -0.03896
  10        2PZ         0.49565  -0.13651   0.03427   0.36756  -0.12471
  11 3   C  1S         -0.00266   0.06596  -0.10206  -0.00036  -0.00404
  12        2S          0.00774  -0.42216   0.60830   0.00045   0.00500
  13        2PX        -0.04111   0.00000  -0.00001  -0.12537   0.01109
  14        2PY         0.04405   0.14874   0.29528   0.00597   0.06756
  15        2PZ         0.48674  -0.27297  -0.06851   0.06560   0.74218
  16 4   C  1S         -0.00114   0.06597   0.10207   0.00367   0.00171
  17        2S          0.00333  -0.42225  -0.60831  -0.00452  -0.00210
  18        2PX        -0.04574  -0.23640   0.05933  -0.55848  -0.32921
  19        2PY         0.01889   0.14870  -0.29527  -0.06152  -0.02862
  20        2PZ         0.49653  -0.13651   0.03427  -0.38373  -0.05832
  21 5   C  1S          0.00152   0.06597  -0.10206  -0.00332   0.00232
  22        2S         -0.00444  -0.42224   0.60830   0.00409  -0.00286
  23        2PX        -0.03494  -0.23639  -0.05935   0.49208  -0.42207
  24        2PY        -0.02518   0.14870   0.29528   0.05554  -0.03896
  25        2PZ         0.49565   0.13651   0.03427  -0.36756   0.12471
  26 6   C  1S          0.00266   0.06596   0.10206  -0.00036  -0.00404
  27        2S         -0.00774  -0.42216  -0.60830   0.00045   0.00500
  28        2PX        -0.04111   0.00000  -0.00001   0.12537  -0.01109
  29        2PY        -0.04405   0.14874  -0.29528   0.00597   0.06756
  30        2PZ         0.48674   0.27297  -0.06851  -0.06560  -0.74218
  31 7   H  1S          0.59424   0.46162   0.35439  -0.05951  -0.67327
  32 8   H  1S          0.33952   0.46169  -0.35436  -0.55331   0.38814
  33 9   H  1S         -0.25474   0.46170   0.35438   0.61280   0.28508
  34 10  H  1S         -0.59424   0.46162  -0.35439  -0.05951  -0.67327
  35 11  H  1S         -0.33952   0.46169   0.35436  -0.55331   0.38814
  36 12  H  1S          0.25474   0.46170  -0.35438   0.61280   0.28508
  37 13  H  1S         -0.02241   0.23579   0.15812  -0.06673  -0.03104
  38 14  H  1S          0.05227   0.23584   0.15814   0.00647   0.07328
  39 15  H  1S         -0.02987   0.23580   0.15814   0.06025  -0.04226
  40 16  H  1S          0.02987   0.23580  -0.15814   0.06025  -0.04226
  41 17  H  1S          0.02241   0.23579  -0.15812  -0.06673  -0.03104
  42 18  H  1S         -0.05227   0.23584  -0.15814   0.00647   0.07328
                          36        37        38        39        40
                           V         V         V         V         V
     Eigenvalues --     0.35594   0.35595   0.40080   0.45590   0.51499
   1 1   C  1S          0.04823  -0.11102   0.00000   0.00917  -0.11771
   2        2S         -0.34017   0.78301   0.00001  -0.07347   0.87191
   3        2PX         0.35392  -0.02374  -0.37858  -0.53815  -0.02358
   4        2PY         0.10379  -0.23891  -0.00001  -0.15479  -0.49102
   5        2PZ        -0.46318  -0.30370   0.65572  -0.31071   0.08531
   6 2   C  1S         -0.07203  -0.09728   0.00000  -0.00917   0.10482
   7        2S          0.50803   0.68611  -0.00001   0.07346  -0.77641
   8        2PX        -0.35015   0.05671   0.37858   0.53816   0.04372
   9        2PY        -0.15500  -0.20933   0.00001   0.15480   0.43724
  10        2PZ        -0.38274   0.40035   0.65573  -0.31072   0.11532
  11 3   C  1S         -0.12027   0.01374   0.00000   0.00917   0.01289
  12        2S          0.84820  -0.09692   0.00000  -0.07344  -0.09550
  13        2PX         0.07155   0.62622   0.75716   0.00000  -0.20744
  14        2PY        -0.25878   0.02956   0.00000  -0.15480   0.05378
  15        2PZ         0.18676  -0.02133  -0.00001   0.62142   0.00244
  16 4   C  1S         -0.04823   0.11102   0.00000  -0.00917  -0.11771
  17        2S          0.34017  -0.78301   0.00001   0.07347   0.87191
  18        2PX         0.35392  -0.02374   0.37858  -0.53815   0.02358
  19        2PY        -0.10379   0.23891  -0.00001   0.15479  -0.49102
  20        2PZ        -0.46318  -0.30370  -0.65572  -0.31071  -0.08531
  21 5   C  1S          0.07203   0.09728   0.00000   0.00917   0.10482
  22        2S         -0.50803  -0.68611  -0.00001  -0.07346  -0.77641
  23        2PX        -0.35015   0.05671  -0.37858   0.53816  -0.04372
  24        2PY         0.15500   0.20933   0.00001  -0.15480   0.43724
  25        2PZ        -0.38274   0.40035  -0.65573  -0.31072  -0.11532
  26 6   C  1S          0.12027  -0.01374   0.00000  -0.00917   0.01289
  27        2S         -0.84820   0.09692   0.00000   0.07344  -0.09550
  28        2PX         0.07155   0.62622  -0.75716   0.00000   0.20744
  29        2PY         0.25878  -0.02956   0.00000   0.15480   0.05378
  30        2PZ         0.18676  -0.02133   0.00001   0.62142  -0.00244
  31 7   H  1S          0.39434  -0.04506   0.00001   0.39810   0.01827
  32 8   H  1S          0.23620   0.31898   0.00000  -0.39809   0.14854
  33 9   H  1S         -0.15816   0.36403   0.00000   0.39808  -0.16681
  34 10  H  1S         -0.39434   0.04506   0.00001  -0.39810   0.01827
  35 11  H  1S         -0.23620  -0.31898   0.00000   0.39809   0.14854
  36 12  H  1S          0.15816  -0.36403   0.00000  -0.39808  -0.16681
  37 13  H  1S          0.17264  -0.39737  -0.00001  -0.19875  -0.77123
  38 14  H  1S         -0.43043   0.04918  -0.00001  -0.19876   0.08448
  39 15  H  1S          0.25782   0.34818   0.00002  -0.19875   0.68675
  40 16  H  1S         -0.25782  -0.34818   0.00002   0.19875   0.68675
  41 17  H  1S         -0.17264   0.39737  -0.00001   0.19875  -0.77123
  42 18  H  1S          0.43043  -0.04918  -0.00001   0.19876   0.08448
                          41        42
                           V         V
     Eigenvalues --     0.51500   0.69028
   1 1   C  1S          0.05307  -0.09740
   2        2S         -0.39312   0.76899
   3        2PX        -0.10371   0.20688
   4        2PY         0.22139  -0.39479
   5        2PZ         0.15957   0.11944
   6 2   C  1S          0.07540   0.09740
   7        2S         -0.55855  -0.76899
   8        2PX        -0.09696  -0.20689
   9        2PY         0.31455   0.39479
  10        2PZ        -0.13944   0.11944
  11 3   C  1S         -0.12848  -0.09740
  12        2S          0.95166   0.76900
  13        2PX        -0.02082   0.00000
  14        2PY        -0.53593  -0.39480
  15        2PZ        -0.02428  -0.23889
  16 4   C  1S          0.05307   0.09740
  17        2S         -0.39312  -0.76899
  18        2PX         0.10371   0.20688
  19        2PY         0.22139   0.39479
  20        2PZ        -0.15957   0.11944
  21 5   C  1S          0.07540  -0.09740
  22        2S         -0.55855   0.76899
  23        2PX         0.09696  -0.20689
  24        2PY         0.31455  -0.39479
  25        2PZ         0.13944   0.11944
  26 6   C  1S         -0.12848   0.09740
  27        2S          0.95166  -0.76900
  28        2PX         0.02082   0.00000
  29        2PY        -0.53593   0.39480
  30        2PZ         0.02428  -0.23889
  31 7   H  1S         -0.18205   0.01024
  32 8   H  1S          0.10685  -0.01024
  33 9   H  1S          0.07520   0.01024
  34 10  H  1S         -0.18205  -0.01024
  35 11  H  1S          0.10685   0.01024
  36 12  H  1S          0.07520  -0.01024
  37 13  H  1S          0.34773  -0.63659
  38 14  H  1S         -0.84177  -0.63660
  39 15  H  1S          0.49404  -0.63659
  40 16  H  1S          0.49404   0.63659
  41 17  H  1S          0.34773   0.63659
  42 18  H  1S         -0.84177   0.63660
     Density Matrix:
                           1         2         3         4         5
   1 1   C  1S          2.06281
   2        2S         -0.18563   0.88726
   3        2PX         0.01926  -0.09019   0.76952
   4        2PY        -0.00257  -0.01934  -0.09286   1.01381
   5        2PZ         0.01112  -0.05208   0.07126  -0.05361   0.68722
   6 2   C  1S          0.02401  -0.06219  -0.00439  -0.03268  -0.11469
   7        2S         -0.06219   0.04694   0.02066   0.15436   0.25466
   8        2PX        -0.00439   0.02066   0.01281   0.01081  -0.00164
   9        2PY        -0.03268   0.15436   0.01082  -0.14521   0.14719
  10        2PZ         0.11469  -0.25466   0.00164  -0.14719  -0.49427
  11 3   C  1S         -0.00202   0.00256   0.01333   0.00894   0.01332
  12        2S          0.00256   0.01590  -0.05471  -0.04325  -0.03117
  13        2PX        -0.00488  -0.00036   0.05514   0.03787   0.04095
  14        2PY         0.00894  -0.04326   0.00280  -0.00187  -0.04211
  15        2PZ        -0.01820   0.06296   0.02555   0.01863   0.09352
  16 4   C  1S         -0.00580   0.02103   0.01481   0.00220   0.00855
  17        2S          0.02103  -0.07705  -0.05797  -0.00786  -0.03347
  18        2PX        -0.01481   0.05797   0.01701   0.01248   0.06109
  19        2PY         0.00220  -0.00786  -0.01248  -0.00480  -0.00720
  20        2PZ        -0.00855   0.03347   0.06109   0.00720  -0.05353
  21 5   C  1S         -0.00202   0.00256   0.01820   0.00894   0.00488
  22        2S          0.00256   0.01590  -0.05435  -0.04325  -0.03180
  23        2PX        -0.01820   0.05435   0.11272   0.03507  -0.00769
  24        2PY         0.00894  -0.04325  -0.03507  -0.00187   0.02348
  25        2PZ         0.00488  -0.03180   0.00769   0.02348   0.03594
  26 6   C  1S          0.02401  -0.06219  -0.10152  -0.03268   0.05355
  27        2S         -0.06219   0.04694   0.23087   0.15436  -0.10945
  28        2PX         0.09713  -0.21022  -0.36749  -0.12206   0.22122
  29        2PY        -0.03268   0.15435   0.13287  -0.14518  -0.06423
  30        2PZ        -0.06114   0.14522   0.21792   0.08295  -0.11397
  31 7   H  1S          0.01714  -0.05165  -0.00927  -0.08289   0.08731
  32 8   H  1S         -0.01032   0.03196   0.06780   0.03193  -0.03307
  33 9   H  1S         -0.00481   0.02157   0.00547  -0.01023   0.00316
  34 10  H  1S         -0.01032   0.03195   0.00526   0.03193   0.07526
  35 11  H  1S          0.01714  -0.05164   0.07097  -0.08289  -0.05167
  36 12  H  1S         -0.10198   0.25096  -0.44583   0.24999  -0.25739
  37 13  H  1S         -0.07490   0.12506   0.01505  -0.72711   0.00869
  38 14  H  1S         -0.00811   0.04410  -0.00980  -0.01339   0.03623
  39 15  H  1S         -0.00811   0.04410   0.02648  -0.01338  -0.02660
  40 16  H  1S          0.03170  -0.13220  -0.00607   0.16836  -0.09493
  41 17  H  1S          0.00155  -0.00622   0.00005   0.00425   0.00003
  42 18  H  1S          0.03170  -0.13220  -0.08525   0.16837   0.04221
                           6         7         8         9        10
   6 2   C  1S          2.06281
   7        2S         -0.18563   0.88726
   8        2PX         0.01926  -0.09019   0.76952
   9        2PY        -0.00257  -0.01934  -0.09286   1.01381
  10        2PZ        -0.01112   0.05208  -0.07126   0.05361   0.68722
  11 3   C  1S          0.02401  -0.06219  -0.10152  -0.03268  -0.05355
  12        2S         -0.06219   0.04694   0.23087   0.15435   0.10945
  13        2PX         0.09713  -0.21022  -0.36750  -0.12206  -0.22122
  14        2PY        -0.03268   0.15435   0.13287  -0.14518   0.06423
  15        2PZ         0.06114  -0.14522  -0.21792  -0.08295  -0.11397
  16 4   C  1S         -0.00202   0.00256   0.01820   0.00894  -0.00488
  17        2S          0.00256   0.01590  -0.05435  -0.04325   0.03180
  18        2PX        -0.01820   0.05435   0.11272   0.03507   0.00769
  19        2PY         0.00894  -0.04325  -0.03507  -0.00187  -0.02348
  20        2PZ        -0.00488   0.03180  -0.00769  -0.02348   0.03594
  21 5   C  1S         -0.00580   0.02103   0.01481   0.00220  -0.00855
  22        2S          0.02103  -0.07705  -0.05797  -0.00786   0.03347
  23        2PX        -0.01481   0.05797   0.01701   0.01248  -0.06109
  24        2PY         0.00220  -0.00786  -0.01248  -0.00480   0.00720
  25        2PZ         0.00855  -0.03347  -0.06109  -0.00720  -0.05353
  26 6   C  1S         -0.00202   0.00256   0.01333   0.00894  -0.01332
  27        2S          0.00256   0.01590  -0.05471  -0.04325   0.03117
  28        2PX        -0.00488  -0.00036   0.05514   0.03787  -0.04095
  29        2PY         0.00894  -0.04326   0.00280  -0.00187   0.04211
  30        2PZ         0.01820  -0.06296  -0.02555  -0.01863   0.09352
  31 7   H  1S         -0.01032   0.03195   0.00526   0.03193  -0.07526
  32 8   H  1S         -0.00481   0.02157   0.00547  -0.01023  -0.00316
  33 9   H  1S         -0.01032   0.03196   0.06780   0.03193   0.03307
  34 10  H  1S          0.01714  -0.05165  -0.00927  -0.08289  -0.08731
  35 11  H  1S         -0.10198   0.25096  -0.44583   0.24999   0.25739
  36 12  H  1S          0.01714  -0.05164   0.07097  -0.08289   0.05167
  37 13  H  1S          0.03170  -0.13220  -0.00607   0.16836   0.09493
  38 14  H  1S          0.03170  -0.13220  -0.08525   0.16837  -0.04221
  39 15  H  1S          0.00155  -0.00622   0.00005   0.00425  -0.00003
  40 16  H  1S         -0.07490   0.12506   0.01505  -0.72711  -0.00869
  41 17  H  1S         -0.00811   0.04410   0.02648  -0.01338   0.02660
  42 18  H  1S         -0.00811   0.04410  -0.00980  -0.01339  -0.03623
                          11        12        13        14        15
  11 3   C  1S          2.06281
  12        2S         -0.18563   0.88724
  13        2PX         0.00000   0.00000   0.64606
  14        2PY        -0.00257  -0.01936   0.00000   1.01383
  15        2PZ        -0.02225   0.10416   0.00000   0.10724   0.81061
  16 4   C  1S          0.02401  -0.06219  -0.09713  -0.03268   0.06114
  17        2S         -0.06219   0.04694   0.21022   0.15435  -0.14522
  18        2PX         0.10152  -0.23087  -0.36749  -0.13287   0.21792
  19        2PY        -0.03268   0.15436   0.12206  -0.14518  -0.08295
  20        2PZ        -0.05355   0.10945   0.22122   0.06423  -0.11397
  21 5   C  1S         -0.00202   0.00256   0.00488   0.00894  -0.01820
  22        2S          0.00256   0.01590   0.00036  -0.04326   0.06296
  23        2PX        -0.01333   0.05471   0.05514  -0.00280  -0.02555
  24        2PY         0.00894  -0.04325  -0.03787  -0.00187   0.01863
  25        2PZ         0.01332  -0.03117  -0.04095  -0.04211   0.09352
  26 6   C  1S         -0.00580   0.02104   0.00000   0.00220  -0.01710
  27        2S          0.02104  -0.07705   0.00000  -0.00787   0.06695
  28        2PX         0.00000   0.00000  -0.08880   0.00000   0.00000
  29        2PY         0.00220  -0.00787   0.00000  -0.00480   0.01441
  30        2PZ         0.01710  -0.06695   0.00000  -0.01441   0.05230
  31 7   H  1S         -0.00481   0.02158   0.00000  -0.01022  -0.00632
  32 8   H  1S         -0.01033   0.03196   0.06255   0.03193  -0.04218
  33 9   H  1S          0.01714  -0.05165  -0.08023  -0.08289  -0.03562
  34 10  H  1S         -0.10198   0.25095   0.00000   0.24999   0.51481
  35 11  H  1S          0.01714  -0.05165   0.08023  -0.08289  -0.03562
  36 12  H  1S         -0.01033   0.03196  -0.06255   0.03193  -0.04219
  37 13  H  1S         -0.00811   0.04410  -0.03627  -0.01338  -0.00963
  38 14  H  1S         -0.07490   0.12507   0.00000  -0.72710  -0.01737
  39 15  H  1S         -0.00811   0.04410   0.03627  -0.01338  -0.00963
  40 16  H  1S          0.03170  -0.13220   0.07918   0.16838   0.05273
  41 17  H  1S          0.03170  -0.13220  -0.07918   0.16837   0.05273
  42 18  H  1S          0.00155  -0.00622   0.00000   0.00425  -0.00006
                          16        17        18        19        20
  16 4   C  1S          2.06281
  17        2S         -0.18563   0.88726
  18        2PX        -0.01926   0.09019   0.76952
  19        2PY        -0.00257  -0.01934   0.09286   1.01381
  20        2PZ        -0.01112   0.05208   0.07126   0.05361   0.68722
  21 5   C  1S          0.02401  -0.06219   0.00439  -0.03268   0.11469
  22        2S         -0.06219   0.04694  -0.02066   0.15436  -0.25466
  23        2PX         0.00439  -0.02066   0.01281  -0.01081  -0.00164
  24        2PY        -0.03268   0.15436  -0.01082  -0.14521  -0.14719
  25        2PZ        -0.11469   0.25466   0.00164   0.14719  -0.49427
  26 6   C  1S         -0.00202   0.00256  -0.01333   0.00894  -0.01332
  27        2S          0.00256   0.01590   0.05471  -0.04325   0.03117
  28        2PX         0.00488   0.00036   0.05514  -0.03787   0.04095
  29        2PY         0.00894  -0.04326  -0.00280  -0.00187   0.04211
  30        2PZ         0.01820  -0.06296   0.02555  -0.01863   0.09352
  31 7   H  1S         -0.01032   0.03195  -0.00526   0.03193  -0.07526
  32 8   H  1S          0.01714  -0.05164  -0.07097  -0.08289   0.05167
  33 9   H  1S         -0.10198   0.25096   0.44583   0.24999   0.25739
  34 10  H  1S          0.01714  -0.05165   0.00927  -0.08289  -0.08731
  35 11  H  1S         -0.01032   0.03196  -0.06780   0.03193   0.03307
  36 12  H  1S         -0.00481   0.02157  -0.00547  -0.01023  -0.00316
  37 13  H  1S          0.00155  -0.00622  -0.00005   0.00425  -0.00003
  38 14  H  1S          0.03170  -0.13220   0.08525   0.16837  -0.04221
  39 15  H  1S          0.03170  -0.13220   0.00607   0.16836   0.09493
  40 16  H  1S         -0.00811   0.04410  -0.02648  -0.01338   0.02660
  41 17  H  1S         -0.07490   0.12506  -0.01505  -0.72711  -0.00869
  42 18  H  1S         -0.00811   0.04410   0.00980  -0.01339  -0.03623
                          21        22        23        24        25
  21 5   C  1S          2.06281
  22        2S         -0.18563   0.88726
  23        2PX        -0.01926   0.09019   0.76952
  24        2PY        -0.00257  -0.01934   0.09286   1.01381
  25        2PZ         0.01112  -0.05208  -0.07126  -0.05361   0.68722
  26 6   C  1S          0.02401  -0.06219   0.10152  -0.03268   0.05355
  27        2S         -0.06219   0.04694  -0.23087   0.15435  -0.10945
  28        2PX        -0.09713   0.21022  -0.36750   0.12206  -0.22122
  29        2PY        -0.03268   0.15435  -0.13287  -0.14518  -0.06423
  30        2PZ        -0.06114   0.14522  -0.21792   0.08295  -0.11397
  31 7   H  1S          0.01714  -0.05165   0.00927  -0.08289   0.08731
  32 8   H  1S         -0.10198   0.25096   0.44583   0.24999  -0.25739
  33 9   H  1S          0.01714  -0.05164  -0.07097  -0.08289  -0.05167
  34 10  H  1S         -0.01032   0.03195  -0.00526   0.03193   0.07526
  35 11  H  1S         -0.00481   0.02157  -0.00547  -0.01023   0.00316
  36 12  H  1S         -0.01032   0.03196  -0.06780   0.03193  -0.03307
  37 13  H  1S         -0.00811   0.04410  -0.02648  -0.01338  -0.02660
  38 14  H  1S         -0.00811   0.04410   0.00980  -0.01339   0.03623
  39 15  H  1S         -0.07490   0.12506  -0.01505  -0.72711   0.00869
  40 16  H  1S          0.00155  -0.00622  -0.00005   0.00425   0.00003
  41 17  H  1S          0.03170  -0.13220   0.00607   0.16836  -0.09493
  42 18  H  1S          0.03170  -0.13220   0.08525   0.16837   0.04221
                          26        27        28        29        30
  26 6   C  1S          2.06281
  27        2S         -0.18563   0.88724
  28        2PX         0.00000   0.00000   0.64606
  29        2PY        -0.00257  -0.01936   0.00000   1.01383
  30        2PZ         0.02225  -0.10416   0.00000  -0.10724   0.81061
  31 7   H  1S         -0.10198   0.25095   0.00000   0.24999  -0.51481
  32 8   H  1S          0.01714  -0.05165  -0.08023  -0.08289   0.03562
  33 9   H  1S         -0.01033   0.03196   0.06255   0.03193   0.04219
  34 10  H  1S         -0.00481   0.02158   0.00000  -0.01022   0.00632
  35 11  H  1S         -0.01033   0.03196  -0.06255   0.03193   0.04218
  36 12  H  1S          0.01714  -0.05165   0.08023  -0.08289   0.03562
  37 13  H  1S          0.03170  -0.13220   0.07918   0.16837  -0.05273
  38 14  H  1S          0.00155  -0.00622   0.00000   0.00425   0.00006
  39 15  H  1S          0.03170  -0.13220  -0.07918   0.16838  -0.05273
  40 16  H  1S         -0.00811   0.04410  -0.03627  -0.01338   0.00963
  41 17  H  1S         -0.00811   0.04410   0.03627  -0.01338   0.00963
  42 18  H  1S         -0.07490   0.12507   0.00000  -0.72710   0.01737
                          31        32        33        34        35
  31 7   H  1S          0.41897
  32 8   H  1S         -0.09490   0.41895
  33 9   H  1S         -0.01087  -0.09490   0.41895
  34 10  H  1S          0.00386  -0.01087  -0.09490   0.41897
  35 11  H  1S         -0.01087   0.00386  -0.01087  -0.09490   0.41895
  36 12  H  1S         -0.09490  -0.01087   0.00386  -0.01087  -0.09490
  37 13  H  1S          0.05867  -0.02474   0.01423  -0.02474   0.05865
  38 14  H  1S          0.01423  -0.02474   0.05866  -0.12298   0.05866
  39 15  H  1S          0.05867  -0.12299   0.05865  -0.02474   0.01423
  40 16  H  1S         -0.02474   0.01423  -0.02474   0.05867  -0.12299
  41 17  H  1S         -0.02474   0.05865  -0.12299   0.05867  -0.02474
  42 18  H  1S         -0.12298   0.05866  -0.02474   0.01423  -0.02474
                          36        37        38        39        40
  36 12  H  1S          0.41895
  37 13  H  1S         -0.12299   0.54591
  38 14  H  1S         -0.02474   0.02586   0.54589
  39 15  H  1S         -0.02474   0.02586   0.02586   0.54591
  40 16  H  1S          0.05865  -0.17199  -0.17202  -0.00623   0.54591
  41 17  H  1S          0.01423  -0.00623  -0.17202  -0.17199   0.02586
  42 18  H  1S          0.05866  -0.17202  -0.00623  -0.17202   0.02586
                          41        42
  41 17  H  1S          0.54591
  42 18  H  1S          0.02586   0.54589
    Full Mulliken population analysis:
                           1         2         3         4         5
   1 1   C  1S          2.06281
   2        2S         -0.04610   0.88726
   3        2PX         0.00000   0.00000   0.76952
   4        2PY         0.00000   0.00000   0.00000   1.01381
   5        2PZ         0.00000   0.00000   0.00000   0.00000   0.68722
   6 2   C  1S          0.00000  -0.00237   0.00000   0.00000  -0.00724
   7        2S         -0.00237   0.01726   0.00000   0.00000   0.09933
   8        2PX         0.00000   0.00000   0.00276   0.00000   0.00000
   9        2PY         0.00000   0.00000   0.00000  -0.03127   0.00000
  10        2PZ        -0.00724   0.09933   0.00000   0.00000   0.16218
  11 3   C  1S          0.00000   0.00000   0.00003   0.00000   0.00005
  12        2S          0.00000   0.00098  -0.00247   0.00000  -0.00244
  13        2PX         0.00001   0.00002  -0.00060   0.00000  -0.00260
  14        2PY         0.00000   0.00000   0.00000  -0.00005   0.00000
  15        2PZ         0.00007  -0.00493  -0.00162   0.00000  -0.00789
  16 4   C  1S          0.00000   0.00001   0.00001   0.00000   0.00000
  17        2S          0.00001  -0.00204  -0.00214   0.00000  -0.00071
  18        2PX         0.00001  -0.00214  -0.00077   0.00000  -0.00195
  19        2PY         0.00000   0.00000   0.00000  -0.00005   0.00000
  20        2PZ         0.00000  -0.00071  -0.00195   0.00000   0.00044
  21 5   C  1S          0.00000   0.00000   0.00008   0.00000   0.00000
  22        2S          0.00000   0.00098  -0.00491   0.00000   0.00000
  23        2PX         0.00008  -0.00491  -0.01365   0.00000   0.00000
  24        2PY         0.00000   0.00000   0.00000  -0.00005   0.00000
  25        2PZ         0.00000   0.00000   0.00000   0.00000   0.00093
  26 6   C  1S          0.00000  -0.00237  -0.00555   0.00000  -0.00169
  27        2S         -0.00237   0.01726   0.07799   0.00000   0.02135
  28        2PX        -0.00531   0.07101   0.07065   0.00000   0.05206
  29        2PY         0.00000   0.00000   0.00000  -0.03126   0.00000
  30        2PZ        -0.00193   0.02832   0.05128   0.00000  -0.00906
  31 7   H  1S          0.00009  -0.00505  -0.00066   0.00000  -0.00911
  32 8   H  1S          0.00000   0.00021   0.00074   0.00000   0.00006
  33 9   H  1S          0.00000   0.00004   0.00002   0.00000   0.00001
  34 10  H  1S          0.00000   0.00021   0.00002   0.00000   0.00078
  35 11  H  1S          0.00009  -0.00505  -0.00391   0.00000  -0.00586
  36 12  H  1S         -0.00642   0.12380   0.18100   0.00000   0.06033
  37 13  H  1S         -0.00575   0.06798  -0.00056   0.35929  -0.00019
  38 14  H  1S         -0.00001   0.00152  -0.00022   0.00025   0.00147
  39 15  H  1S         -0.00001   0.00152   0.00123   0.00025   0.00002
  40 16  H  1S          0.00045  -0.02576   0.00006  -0.02181  -0.01775
  41 17  H  1S          0.00000  -0.00010   0.00000  -0.00003   0.00000
  42 18  H  1S          0.00045  -0.02576  -0.01338  -0.02181  -0.00430
                           6         7         8         9        10
   6 2   C  1S          2.06281
   7        2S         -0.04610   0.88726
   8        2PX         0.00000   0.00000   0.76952
   9        2PY         0.00000   0.00000   0.00000   1.01381
  10        2PZ         0.00000   0.00000   0.00000   0.00000   0.68722
  11 3   C  1S          0.00000  -0.00237  -0.00555   0.00000  -0.00169
  12        2S         -0.00237   0.01726   0.07799   0.00000   0.02135
  13        2PX        -0.00531   0.07101   0.07065   0.00000   0.05206
  14        2PY         0.00000   0.00000   0.00000  -0.03126   0.00000
  15        2PZ        -0.00193   0.02832   0.05128   0.00000  -0.00906
  16 4   C  1S          0.00000   0.00000   0.00008   0.00000   0.00000
  17        2S          0.00000   0.00098  -0.00491   0.00000   0.00000
  18        2PX         0.00008  -0.00491  -0.01365   0.00000   0.00000
  19        2PY         0.00000   0.00000   0.00000  -0.00005   0.00000
  20        2PZ         0.00000   0.00000   0.00000   0.00000   0.00093
  21 5   C  1S          0.00000   0.00001   0.00001   0.00000   0.00000
  22        2S          0.00001  -0.00204  -0.00214   0.00000  -0.00071
  23        2PX         0.00001  -0.00214  -0.00077   0.00000  -0.00195
  24        2PY         0.00000   0.00000   0.00000  -0.00005   0.00000
  25        2PZ         0.00000  -0.00071  -0.00195   0.00000   0.00044
  26 6   C  1S          0.00000   0.00000   0.00003   0.00000   0.00005
  27        2S          0.00000   0.00098  -0.00247   0.00000  -0.00244
  28        2PX         0.00001   0.00002  -0.00060   0.00000  -0.00260
  29        2PY         0.00000   0.00000   0.00000  -0.00005   0.00000
  30        2PZ         0.00007  -0.00493  -0.00162   0.00000  -0.00789
  31 7   H  1S          0.00000   0.00021   0.00002   0.00000   0.00078
  32 8   H  1S          0.00000   0.00004   0.00002   0.00000   0.00001
  33 9   H  1S          0.00000   0.00021   0.00074   0.00000   0.00006
  34 10  H  1S          0.00009  -0.00505  -0.00066   0.00000  -0.00911
  35 11  H  1S         -0.00642   0.12380   0.18100   0.00000   0.06033
  36 12  H  1S          0.00009  -0.00505  -0.00391   0.00000  -0.00586
  37 13  H  1S          0.00045  -0.02576   0.00006  -0.02181  -0.01775
  38 14  H  1S          0.00045  -0.02576  -0.01338  -0.02181  -0.00430
  39 15  H  1S          0.00000  -0.00010   0.00000  -0.00003   0.00000
  40 16  H  1S         -0.00575   0.06798  -0.00056   0.35929  -0.00019
  41 17  H  1S         -0.00001   0.00152   0.00123   0.00025   0.00002
  42 18  H  1S         -0.00001   0.00152  -0.00022   0.00025   0.00147
                          11        12        13        14        15
  11 3   C  1S          2.06281
  12        2S         -0.04610   0.88724
  13        2PX         0.00000   0.00000   0.64606
  14        2PY         0.00000   0.00000   0.00000   1.01383
  15        2PZ         0.00000   0.00000   0.00000   0.00000   0.81061
  16 4   C  1S          0.00000  -0.00237  -0.00531   0.00000  -0.00193
  17        2S         -0.00237   0.01726   0.07101   0.00000   0.02832
  18        2PX        -0.00555   0.07799   0.07065   0.00000   0.05128
  19        2PY         0.00000   0.00000   0.00000  -0.03126   0.00000
  20        2PZ        -0.00169   0.02135   0.05206   0.00000  -0.00906
  21 5   C  1S          0.00000   0.00000   0.00001   0.00000   0.00007
  22        2S          0.00000   0.00098   0.00002   0.00000  -0.00493
  23        2PX         0.00003  -0.00247  -0.00060   0.00000  -0.00162
  24        2PY         0.00000   0.00000   0.00000  -0.00005   0.00000
  25        2PZ         0.00005  -0.00244  -0.00260   0.00000  -0.00789
  26 6   C  1S          0.00000   0.00001   0.00000   0.00000   0.00002
  27        2S          0.00001  -0.00204   0.00000   0.00000  -0.00285
  28        2PX         0.00000   0.00000  -0.00091   0.00000   0.00000
  29        2PY         0.00000   0.00000   0.00000  -0.00005   0.00000
  30        2PZ         0.00002  -0.00285   0.00000   0.00000  -0.00332
  31 7   H  1S          0.00000   0.00004   0.00000   0.00000   0.00002
  32 8   H  1S          0.00000   0.00021   0.00044   0.00000   0.00036
  33 9   H  1S          0.00009  -0.00505  -0.01009   0.00000   0.00032
  34 10  H  1S         -0.00642   0.12380   0.00000   0.00000   0.24134
  35 11  H  1S          0.00009  -0.00505  -0.01009   0.00000   0.00032
  36 12  H  1S          0.00000   0.00021   0.00044   0.00000   0.00036
  37 13  H  1S         -0.00001   0.00152   0.00087   0.00025   0.00038
  38 14  H  1S         -0.00575   0.06799   0.00000   0.35928  -0.00075
  39 15  H  1S         -0.00001   0.00152   0.00087   0.00025   0.00038
  40 16  H  1S          0.00045  -0.02576  -0.01321  -0.02181  -0.00448
  41 17  H  1S          0.00045  -0.02576  -0.01321  -0.02181  -0.00448
  42 18  H  1S          0.00000  -0.00010   0.00000  -0.00003   0.00000
                          16        17        18        19        20
  16 4   C  1S          2.06281
  17        2S         -0.04610   0.88726
  18        2PX         0.00000   0.00000   0.76952
  19        2PY         0.00000   0.00000   0.00000   1.01381
  20        2PZ         0.00000   0.00000   0.00000   0.00000   0.68722
  21 5   C  1S          0.00000  -0.00237   0.00000   0.00000  -0.00724
  22        2S         -0.00237   0.01726   0.00000   0.00000   0.09933
  23        2PX         0.00000   0.00000   0.00276   0.00000   0.00000
  24        2PY         0.00000   0.00000   0.00000  -0.03127   0.00000
  25        2PZ        -0.00724   0.09933   0.00000   0.00000   0.16218
  26 6   C  1S          0.00000   0.00000   0.00003   0.00000   0.00005
  27        2S          0.00000   0.00098  -0.00247   0.00000  -0.00244
  28        2PX         0.00001   0.00002  -0.00060   0.00000  -0.00260
  29        2PY         0.00000   0.00000   0.00000  -0.00005   0.00000
  30        2PZ         0.00007  -0.00493  -0.00162   0.00000  -0.00789
  31 7   H  1S          0.00000   0.00021   0.00002   0.00000   0.00078
  32 8   H  1S          0.00009  -0.00505  -0.00391   0.00000  -0.00586
  33 9   H  1S         -0.00642   0.12380   0.18100   0.00000   0.06033
  34 10  H  1S          0.00009  -0.00505  -0.00066   0.00000  -0.00911
  35 11  H  1S          0.00000   0.00021   0.00074   0.00000   0.00006
  36 12  H  1S          0.00000   0.00004   0.00002   0.00000   0.00001
  37 13  H  1S          0.00000  -0.00010   0.00000  -0.00003   0.00000
  38 14  H  1S          0.00045  -0.02576  -0.01338  -0.02181  -0.00430
  39 15  H  1S          0.00045  -0.02576   0.00006  -0.02181  -0.01775
  40 16  H  1S         -0.00001   0.00152   0.00123   0.00025   0.00002
  41 17  H  1S         -0.00575   0.06798  -0.00056   0.35929  -0.00019
  42 18  H  1S         -0.00001   0.00152  -0.00022   0.00025   0.00147
                          21        22        23        24        25
  21 5   C  1S          2.06281
  22        2S         -0.04610   0.88726
  23        2PX         0.00000   0.00000   0.76952
  24        2PY         0.00000   0.00000   0.00000   1.01381
  25        2PZ         0.00000   0.00000   0.00000   0.00000   0.68722
  26 6   C  1S          0.00000  -0.00237  -0.00555   0.00000  -0.00169
  27        2S         -0.00237   0.01726   0.07799   0.00000   0.02135
  28        2PX        -0.00531   0.07101   0.07065   0.00000   0.05206
  29        2PY         0.00000   0.00000   0.00000  -0.03126   0.00000
  30        2PZ        -0.00193   0.02832   0.05128   0.00000  -0.00906
  31 7   H  1S          0.00009  -0.00505  -0.00066   0.00000  -0.00911
  32 8   H  1S         -0.00642   0.12380   0.18100   0.00000   0.06033
  33 9   H  1S          0.00009  -0.00505  -0.00391   0.00000  -0.00586
  34 10  H  1S          0.00000   0.00021   0.00002   0.00000   0.00078
  35 11  H  1S          0.00000   0.00004   0.00002   0.00000   0.00001
  36 12  H  1S          0.00000   0.00021   0.00074   0.00000   0.00006
  37 13  H  1S         -0.00001   0.00152   0.00123   0.00025   0.00002
  38 14  H  1S         -0.00001   0.00152  -0.00022   0.00025   0.00147
  39 15  H  1S         -0.00575   0.06798  -0.00056   0.35929  -0.00019
  40 16  H  1S          0.00000  -0.00010   0.00000  -0.00003   0.00000
  41 17  H  1S          0.00045  -0.02576   0.00006  -0.02181  -0.01775
  42 18  H  1S          0.00045  -0.02576  -0.01338  -0.02181  -0.00430
                          26        27        28        29        30
  26 6   C  1S          2.06281
  27        2S         -0.04610   0.88724
  28        2PX         0.00000   0.00000   0.64606
  29        2PY         0.00000   0.00000   0.00000   1.01383
  30        2PZ         0.00000   0.00000   0.00000   0.00000   0.81061
  31 7   H  1S         -0.00642   0.12380   0.00000   0.00000   0.24134
  32 8   H  1S          0.00009  -0.00505  -0.01009   0.00000   0.00032
  33 9   H  1S          0.00000   0.00021   0.00044   0.00000   0.00036
  34 10  H  1S          0.00000   0.00004   0.00000   0.00000   0.00002
  35 11  H  1S          0.00000   0.00021   0.00044   0.00000   0.00036
  36 12  H  1S          0.00009  -0.00505  -0.01009   0.00000   0.00032
  37 13  H  1S          0.00045  -0.02576  -0.01321  -0.02181  -0.00448
  38 14  H  1S          0.00000  -0.00010   0.00000  -0.00003   0.00000
  39 15  H  1S          0.00045  -0.02576  -0.01321  -0.02181  -0.00448
  40 16  H  1S         -0.00001   0.00152   0.00087   0.00025   0.00038
  41 17  H  1S         -0.00001   0.00152   0.00087   0.00025   0.00038
  42 18  H  1S         -0.00575   0.06799   0.00000   0.35928  -0.00075
                          31        32        33        34        35
  31 7   H  1S          0.41897
  32 8   H  1S         -0.00488   0.41895
  33 9   H  1S         -0.00001  -0.00488   0.41895
  34 10  H  1S          0.00000  -0.00001  -0.00488   0.41897
  35 11  H  1S         -0.00001   0.00000  -0.00001  -0.00488   0.41895
  36 12  H  1S         -0.00488  -0.00001   0.00000  -0.00001  -0.00488
  37 13  H  1S          0.00363  -0.00012   0.00002  -0.00012   0.00363
  38 14  H  1S          0.00002  -0.00012   0.00363  -0.03584   0.00363
  39 15  H  1S          0.00363  -0.03584   0.00363  -0.00012   0.00002
  40 16  H  1S         -0.00012   0.00002  -0.00012   0.00363  -0.03584
  41 17  H  1S         -0.00012   0.00363  -0.03584   0.00363  -0.00012
  42 18  H  1S         -0.03584   0.00363  -0.00012   0.00002  -0.00012
                          36        37        38        39        40
  36 12  H  1S          0.41895
  37 13  H  1S         -0.03584   0.54591
  38 14  H  1S         -0.00012   0.00113   0.54589
  39 15  H  1S         -0.00012   0.00113   0.00113   0.54591
  40 16  H  1S          0.00363  -0.04537  -0.04537  -0.00012   0.54591
  41 17  H  1S          0.00002  -0.00012  -0.04537  -0.04537   0.00113
  42 18  H  1S          0.00363  -0.04537  -0.00012  -0.04537   0.00113
                          41        42
  41 17  H  1S          0.54591
  42 18  H  1S          0.00113   0.54589
     Gross orbital populations:
                           1
   1 1   C  1S          1.98659
   2        2S          1.19045
   3        2PX         1.10300
   4        2PY         1.26726
   5        2PZ         1.01543
   6 2   C  1S          1.98659
   7        2S          1.19045
   8        2PX         1.10300
   9        2PY         1.26727
  10        2PZ         1.01543
  11 3   C  1S          1.98659
  12        2S          1.19043
  13        2PX         0.97164
  14        2PY         1.26728
  15        2PZ         1.14672
  16 4   C  1S          1.98659
  17        2S          1.19045
  18        2PX         1.10300
  19        2PY         1.26726
  20        2PZ         1.01543
  21 5   C  1S          1.98659
  22        2S          1.19045
  23        2PX         1.10300
  24        2PY         1.26727
  25        2PZ         1.01543
  26 6   C  1S          1.98659
  27        2S          1.19043
  28        2PX         0.97164
  29        2PY         1.26728
  30        2PZ         1.14672
  31 7   H  1S          0.71174
  32 8   H  1S          0.71172
  33 9   H  1S          0.71172
  34 10  H  1S          0.71174
  35 11  H  1S          0.71172
  36 12  H  1S          0.71172
  37 13  H  1S          0.72557
  38 14  H  1S          0.72555
  39 15  H  1S          0.72557
  40 16  H  1S          0.72557
  41 17  H  1S          0.72557
  42 18  H  1S          0.72555
          Condensed to atoms (all electrons):
               1          2          3          4          5          6
     1  C    5.328407   0.330388  -0.021457  -0.011958  -0.021457   0.330391
     2  C    0.330388   5.328411   0.330391  -0.021457  -0.011958  -0.021457
     3  C   -0.021457   0.330391   5.328347   0.330391  -0.021457  -0.011959
     4  C   -0.011958  -0.021457   0.330391   5.328407   0.330388  -0.021457
     5  C   -0.021457  -0.011958  -0.021457   0.330388   5.328411   0.330391
     6  C    0.330391  -0.021457  -0.011959  -0.021457   0.330391   5.328347
     7  H   -0.014728   0.001011   0.000063   0.001012  -0.014728   0.358715
     8  H    0.001011   0.000063   0.001012  -0.014725   0.358716  -0.014726
     9  H    0.000063   0.001011  -0.014725   0.358716  -0.014725   0.001012
    10  H    0.001012  -0.014728   0.358715  -0.014728   0.001011   0.000063
    11  H   -0.014725   0.358716  -0.014726   0.001011   0.000063   0.001012
    12  H    0.358716  -0.014725   0.001012   0.000063   0.001011  -0.014725
    13  Bq   0.000000   0.000000   0.000000   0.000000   0.000000   0.000000
    14  Bq   0.000000   0.000000   0.000000   0.000000   0.000000   0.000000
    15  H    0.420768  -0.064804   0.003016  -0.000129   0.003016  -0.064806
    16  H    0.003016  -0.064805   0.420770  -0.064805   0.003016  -0.000129
    17  H    0.003016  -0.000129   0.003016  -0.064803   0.420768  -0.064806
    18  H   -0.064803   0.420768  -0.064806   0.003016  -0.000129   0.003016
    19  H   -0.000129   0.003016  -0.064806   0.420768  -0.064804   0.003016
    20  H   -0.064805   0.003016  -0.000129   0.003016  -0.064805   0.420770
               7          8          9         10         11         12
     1  C   -0.014728   0.001011   0.000063   0.001012  -0.014725   0.358716
     2  C    0.001011   0.000063   0.001011  -0.014728   0.358716  -0.014725
     3  C    0.000063   0.001012  -0.014725   0.358715  -0.014726   0.001012
     4  C    0.001012  -0.014725   0.358716  -0.014728   0.001011   0.000063
     5  C   -0.014728   0.358716  -0.014725   0.001011   0.000063   0.001011
     6  C    0.358715  -0.014726   0.001012   0.000063   0.001012  -0.014725
     7  H    0.418969  -0.004882  -0.000009   0.000000  -0.000009  -0.004882
     8  H   -0.004882   0.418951  -0.004882  -0.000009   0.000000  -0.000009
     9  H   -0.000009  -0.004882   0.418951  -0.004882  -0.000009   0.000000
    10  H    0.000000  -0.000009  -0.004882   0.418969  -0.004882  -0.000009
    11  H   -0.000009   0.000000  -0.000009  -0.004882   0.418951  -0.004882
    12  H   -0.004882  -0.000009   0.000000  -0.000009  -0.004882   0.418951
    13  Bq   0.000000   0.000000   0.000000   0.000000   0.000000   0.000000
    14  Bq   0.000000   0.000000   0.000000   0.000000   0.000000   0.000000
    15  H    0.003629  -0.000116   0.000020  -0.000116   0.003629  -0.035845
    16  H    0.000020  -0.000116   0.003629  -0.035842   0.003629  -0.000116
    17  H    0.003629  -0.035845   0.003629  -0.000116   0.000020  -0.000116
    18  H   -0.000116   0.000020  -0.000116   0.003629  -0.035845   0.003629
    19  H   -0.000116   0.003629  -0.035845   0.003629  -0.000116   0.000020
    20  H   -0.035842   0.003629  -0.000116   0.000020  -0.000116   0.003629
              13         14         15         16         17         18
     1  C    0.000000   0.000000   0.420768   0.003016   0.003016  -0.064803
     2  C    0.000000   0.000000  -0.064804  -0.064805  -0.000129   0.420768
     3  C    0.000000   0.000000   0.003016   0.420770   0.003016  -0.064806
     4  C    0.000000   0.000000  -0.000129  -0.064805  -0.064803   0.003016
     5  C    0.000000   0.000000   0.003016   0.003016   0.420768  -0.000129
     6  C    0.000000   0.000000  -0.064806  -0.000129  -0.064806   0.003016
     7  H    0.000000   0.000000   0.003629   0.000020   0.003629  -0.000116
     8  H    0.000000   0.000000  -0.000116  -0.000116  -0.035845   0.000020
     9  H    0.000000   0.000000   0.000020   0.003629   0.003629  -0.000116
    10  H    0.000000   0.000000  -0.000116  -0.035842  -0.000116   0.003629
    11  H    0.000000   0.000000   0.003629   0.003629   0.000020  -0.035845
    12  H    0.000000   0.000000  -0.035845  -0.000116  -0.000116   0.003629
    13  Bq   0.000000   0.000000   0.000000   0.000000   0.000000   0.000000
    14  Bq   0.000000   0.000000   0.000000   0.000000   0.000000   0.000000
    15  H    0.000000   0.000000   0.545909   0.001131   0.001132  -0.045368
    16  H    0.000000   0.000000   0.001131   0.545891   0.001131  -0.045375
    17  H    0.000000   0.000000   0.001132   0.001131   0.545909  -0.000123
    18  H    0.000000   0.000000  -0.045368  -0.045375  -0.000123   0.545909
    19  H    0.000000   0.000000  -0.000123  -0.045374  -0.045368   0.001132
    20  H    0.000000   0.000000  -0.045374  -0.000123  -0.045375   0.001131
              19         20
     1  C   -0.000129  -0.064805
     2  C    0.003016   0.003016
     3  C   -0.064806  -0.000129
     4  C    0.420768   0.003016
     5  C   -0.064804  -0.064805
     6  C    0.003016   0.420770
     7  H   -0.000116  -0.035842
     8  H    0.003629   0.003629
     9  H   -0.035845  -0.000116
    10  H    0.003629   0.000020
    11  H   -0.000116  -0.000116
    12  H    0.000020   0.003629
    13  Bq   0.000000   0.000000
    14  Bq   0.000000   0.000000
    15  H   -0.000123  -0.045374
    16  H   -0.045374  -0.000123
    17  H   -0.045368  -0.045375
    18  H    0.001132   0.001131
    19  H    0.545909   0.001131
    20  H    0.001131   0.545891
 Mulliken charges:
               1
     1  C   -0.562726
     2  C   -0.562730
     3  C   -0.562667
     4  C   -0.562726
     5  C   -0.562730
     6  C   -0.562667
     7  H    0.288261
     8  H    0.288277
     9  H    0.288277
    10  H    0.288261
    11  H    0.288277
    12  H    0.288277
    13  Bq   0.000000
    14  Bq   0.000000
    15  H    0.274430
    16  H    0.274449
    17  H    0.274431
    18  H    0.274431
    19  H    0.274430
    20  H    0.274449
 Sum of Mulliken charges =   0.00000
 Mulliken charges with hydrogens summed into heavy atoms:
               1
     1  C   -0.000020
     2  C   -0.000022
     3  C    0.000042
     4  C   -0.000020
     5  C   -0.000022
     6  C    0.000042
    13  Bq   0.000000
    14  Bq   0.000000
 N-N= 2.762032655044D+02 E-N=-1.098224637246D+03  KE= 2.331739918388D+02
 Orbital energies and kinetic energies (alpha):
                                 1                 2
   1         O                -9.857411         15.423367
   2         O                -9.856725         15.453937
   3         O                -9.856724         15.453937
   4         O                -9.855422         15.512067
   5         O                -9.855422         15.512067
   6         O                -9.854538         15.547599
   7         O                -1.050287          1.314728
   8         O                -0.951187          1.474909
   9         O                -0.951180          1.474900
  10         O                -0.795248          1.441204
  11         O                -0.795242          1.441198
  12         O                -0.685345          0.907261
  13         O                -0.630191          1.477162
  14         O                -0.625883          1.308919
  15         O                -0.625159          0.974644
  16         O                -0.565169          1.262058
  17         O                -0.565150          1.262114
  18         O                -0.555118          1.075531
  19         O                -0.555116          1.075569
  20         O                -0.496375          1.392131
  21         O                -0.496370          1.392131
  22         O                -0.396891          1.396581
  23         O                -0.396888          1.396586
  24         O                -0.289749          1.616397
  25         V                 0.012539          1.631149
  26         V                 0.110105          2.023883
  27         V                 0.110114          2.023929
  28         V                 0.113711          2.858562
  29         V                 0.113715          2.858559
  30         V                 0.141468          2.174106
  31         V                 0.141476          2.174160
  32         V                 0.156806          2.145288
  33         V                 0.174090          2.884122
  34         V                 0.309072          2.496380
  35         V                 0.309081          2.496388
  36         V                 0.355942          3.192379
  37         V                 0.355948          3.192389
  38         V                 0.400796          3.365718
  39         V                 0.455896          3.005804
  40         V                 0.514990          3.298864
  41         V                 0.514998          3.298881
  42         V                 0.690284          3.803936
 Total kinetic energy from orbitals= 2.331739918388D+02

 This type of calculation cannot be archived.


 IMAGINATION WILL OFTEN CARRY US TO WORLDS THAT NEVER WERE.
 BUT WITHOUT IT, WE GO NOWHERE. -- CARL SAGAN (COSMOS)
 Job cpu time:       0 days  0 hours  0 minutes  0.5 seconds.
 File lengths (MBytes):  RWF=      5 Int=      0 D2E=      0 Chk=      1 Scr=      1
 Normal termination of Gaussian 09 at Mon May  5 18:18:00 2014.
