 Entering Gaussian System, Link 0=/usr/local/g09/g09
 Input=/home/anuja/input/indene-sigma-center1.in
 Output=/home/anuja/output/indene-sigma-center1.log
 Initial command:
 /usr/local/g09-D.01/g09/l1.exe /gtmp/Gau-6100.inp -scrdir=/gtmp/
 Entering Link 1 = /usr/local/g09-D.01/g09/l1.exe PID=      6102.
  
 Copyright (c) 1988,1990,1992,1993,1995,1998,2003,2009,2013,
            Gaussian, Inc.  All Rights Reserved.
  
 This is part of the Gaussian(R) 09 program.  It is based on
 the Gaussian(R) 03 system (copyright 2003, Gaussian, Inc.),
 the Gaussian(R) 98 system (copyright 1998, Gaussian, Inc.),
 the Gaussian(R) 94 system (copyright 1995, Gaussian, Inc.),
 the Gaussian 92(TM) system (copyright 1992, Gaussian, Inc.),
 the Gaussian 90(TM) system (copyright 1990, Gaussian, Inc.),
 the Gaussian 88(TM) system (copyright 1988, Gaussian, Inc.),
 the Gaussian 86(TM) system (copyright 1986, Carnegie Mellon
 University), and the Gaussian 82(TM) system (copyright 1983,
 Carnegie Mellon University). Gaussian is a federally registered
 trademark of Gaussian, Inc.
  
 This software contains proprietary and confidential information,
 including trade secrets, belonging to Gaussian, Inc.
  
 This software is provided under written license and may be
 used, copied, transmitted, or stored only in accord with that
 written license.
  
 The following legend is applicable only to US Government
 contracts under FAR:
  
                    RESTRICTED RIGHTS LEGEND
  
 Use, reproduction and disclosure by the US Government is
 subject to restrictions as set forth in subparagraphs (a)
 and (c) of the Commercial Computer Software - Restricted
 Rights clause in FAR 52.227-19.
  
 Gaussian, Inc.
 340 Quinnipiac St., Bldg. 40, Wallingford CT 06492
  
  
 ---------------------------------------------------------------
 Warning -- This program may not be used in any manner that
 competes with the business of Gaussian, Inc. or will provide
 assistance to any competitor of Gaussian, Inc.  The licensee
 of this program is prohibited from giving any competitor of
 Gaussian, Inc. access to this program.  By using this program,
 the user acknowledges that Gaussian, Inc. is engaged in the
 business of creating and licensing software in the field of
 computational chemistry and represents and warrants to the
 licensee that it is not a competitor of Gaussian, Inc. and that
 it will not use this program in any manner prohibited above.
 ---------------------------------------------------------------
  

 Cite this work as:
 Gaussian 09, Revision D.01,
 M. J. Frisch, G. W. Trucks, H. B. Schlegel, G. E. Scuseria, 
 M. A. Robb, J. R. Cheeseman, G. Scalmani, V. Barone, B. Mennucci, 
 G. A. Petersson, H. Nakatsuji, M. Caricato, X. Li, H. P. Hratchian, 
 A. F. Izmaylov, J. Bloino, G. Zheng, J. L. Sonnenberg, M. Hada, 
 M. Ehara, K. Toyota, R. Fukuda, J. Hasegawa, M. Ishida, T. Nakajima, 
 Y. Honda, O. Kitao, H. Nakai, T. Vreven, J. A. Montgomery, Jr., 
 J. E. Peralta, F. Ogliaro, M. Bearpark, J. J. Heyd, E. Brothers, 
 K. N. Kudin, V. N. Staroverov, T. Keith, R. Kobayashi, J. Normand, 
 K. Raghavachari, A. Rendell, J. C. Burant, S. S. Iyengar, J. Tomasi, 
 M. Cossi, N. Rega, J. M. Millam, M. Klene, J. E. Knox, J. B. Cross, 
 V. Bakken, C. Adamo, J. Jaramillo, R. Gomperts, R. E. Stratmann, 
 O. Yazyev, A. J. Austin, R. Cammi, C. Pomelli, J. W. Ochterski, 
 R. L. Martin, K. Morokuma, V. G. Zakrzewski, G. A. Voth, 
 P. Salvador, J. J. Dannenberg, S. Dapprich, A. D. Daniels, 
 O. Farkas, J. B. Foresman, J. V. Ortiz, J. Cioslowski, 
 and D. J. Fox, Gaussian, Inc., Wallingford CT, 2013.
 
 ******************************************
 Gaussian 09:  EM64L-G09RevD.01 24-Apr-2013
                11-Nov-2014 
 ******************************************
 %NPROC=6
 Will use up to    6 processors via shared memory.
 %MEM=6024MB
 ----------------------------------------------------------------------
 # B3LYP/6-311+G* NMR=GIAO INTEGRAL=(GRID=ULTRAFINE) CPHF=(GRID=FINE) P
 OP=FULL SCF(MAXCYCLE=512)
 ----------------------------------------------------------------------
 1/38=1/1;
 2/12=2,17=6,18=5,40=1/2;
 3/5=4,6=6,7=11,11=2,16=1,25=1,30=1,74=-5,75=-5/1,2,8,3;
 4//1;
 5/5=2,7=512,38=5,96=4/2;
 8/6=1,10=90,11=11/1;
 10/13=100,45=16,60=4/2;
 6/7=3,28=1/1;
 99/9=1/99;
 ---------------------------------------------------------------------
 ---------------------------------------------------------- # Center 1
 ---------------------------------------------------------------------
 Symbolic Z-matrix:
 Charge =  0 Multiplicity = 1
 6                    -1.25241   0.72951   0. 
 6                    -1.25241  -0.7156    0. 
 6                     0.0775   -1.44035   0. 
 6                     1.2919   -0.65704   0. 
 6                     1.20948   0.692     0. 
 6                    -0.07407   1.39148   0. 
 1                    -0.06085   2.47666   0. 
 1                     2.11425   1.29132   0. 
 1                     2.25273  -1.16122   0. 
 6                    -0.13612  -2.7719    0. 
 6                    -1.62766  -2.98676   0. 
 8                    -2.20659  -4.0491    0. 
 6                    -2.25559  -1.61688   0. 
 1                    -3.32318  -1.44812   0. 
 1                     0.58438  -3.57758   0. 
 1                    -2.19691   1.26365   0. 
 1                    -1.32894  -0.6739   -0.9962 
 1                     0.15403  -1.48206  -0.99619 
 1                    -1.32772   0.77338  -0.9962 
 1                     1.36959  -0.69655  -0.9962 
 1                     1.28513   0.73528  -0.9962 
 1                    -0.0787    1.47852  -0.9962 
 1                    -0.07321  -2.83222  -0.99619 
 1                    -1.66937  -3.06329  -0.99619 
 1                    -2.34038  -1.59671  -0.99619 
 1                    -2.24663  -4.12257  -0.95635 
 bq                    0.        0.        0. 
 bq                    0.        0.        0.1 
 bq                    0.        0.        0.2 
 bq                    0.        0.        0.3 
 bq                    0.        0.        0.4 
 bq                    0.        0.        0.5 
 bq                    0.        0.        0.6 
 bq                    0.        0.        0.7 
 bq                    0.        0.        0.8 
 bq                    0.        0.        0.9 
 bq                    0.        0.        1. 
 bq                    0.        0.        1.1 
 bq                    0.        0.        1.2 
 bq                    0.        0.        1.3 
 bq                    0.        0.        1.4 
 bq                    0.        0.        1.5 
 bq                    0.        0.        1.6 
 bq                    0.        0.        1.7 
 bq                    0.        0.        1.8 
 bq                    0.        0.        1.9 
 bq                    0.        0.        2. 
 bq                    0.        0.        2.1 
 bq                    0.        0.        2.2 
 bq                    0.        0.        2.3 
 bq                    0.        0.        2.4 
 bq                    0.        0.        2.5 
 bq                    0.        0.        2.6 
 bq                    0.        0.        2.7 
 bq                    0.        0.        2.8 
 bq                    0.        0.        2.9 
 bq                    0.        0.        3. 
 bq                    0.        0.        3.1 
 bq                    0.        0.        3.2 
 bq                    0.        0.        3.3 
 bq                    0.        0.        3.4 
 bq                    0.        0.        3.5 
 bq                    0.        0.        3.6 
 bq                    0.        0.        3.7 
 bq                    0.        0.        3.8 
 bq                    0.        0.        3.9 
 
 Symmetry turned off:
 Cannot cope with ghost atoms or with translation vectors.
 Stoichiometry    C9H16O
 Framework group  C1[X(C9H16O)]
 NUMDOF-- NAT=    26 NAtoms=    66
 Deg. of freedom     0
 Full point group                 C1      NOp   1
                          Input orientation:                          
 ---------------------------------------------------------------------
 Center     Atomic      Atomic             Coordinates (Angstroms)
 Number     Number       Type             X           Y           Z
 ---------------------------------------------------------------------
      1          6           0       -1.252410    0.729510    0.000000
      2          6           0       -1.252410   -0.715600    0.000000
      3          6           0        0.077500   -1.440350    0.000000
      4          6           0        1.291900   -0.657040    0.000000
      5          6           0        1.209480    0.692000    0.000000
      6          6           0       -0.074070    1.391480    0.000000
      7          1           0       -0.060850    2.476660    0.000000
      8          1           0        2.114250    1.291320    0.000000
      9          1           0        2.252730   -1.161220    0.000000
     10          6           0       -0.136120   -2.771900    0.000000
     11          6           0       -1.627660   -2.986760    0.000000
     12          8           0       -2.206590   -4.049100    0.000000
     13          6           0       -2.255590   -1.616880    0.000000
     14          1           0       -3.323180   -1.448120    0.000000
     15          1           0        0.584380   -3.577580    0.000000
     16          1           0       -2.196910    1.263650    0.000000
     17          1           0       -1.328940   -0.673900   -0.996200
     18          1           0        0.154030   -1.482060   -0.996190
     19          1           0       -1.327720    0.773380   -0.996200
     20          1           0        1.369590   -0.696550   -0.996200
     21          1           0        1.285130    0.735280   -0.996200
     22          1           0       -0.078700    1.478520   -0.996200
     23          1           0       -0.073210   -2.832220   -0.996190
     24          1           0       -1.669370   -3.063290   -0.996190
     25          1           0       -2.340380   -1.596710   -0.996190
     26          1           0       -2.246630   -4.122570   -0.956350
     27          0           0        0.000000    0.000000    0.000000
     28          0           0        0.000000    0.000000    0.100000
     29          0           0        0.000000    0.000000    0.200000
     30          0           0        0.000000    0.000000    0.300000
     31          0           0        0.000000    0.000000    0.400000
     32          0           0        0.000000    0.000000    0.500000
     33          0           0        0.000000    0.000000    0.600000
     34          0           0        0.000000    0.000000    0.700000
     35          0           0        0.000000    0.000000    0.800000
     36          0           0        0.000000    0.000000    0.900000
     37          0           0        0.000000    0.000000    1.000000
     38          0           0        0.000000    0.000000    1.100000
     39          0           0        0.000000    0.000000    1.200000
     40          0           0        0.000000    0.000000    1.300000
     41          0           0        0.000000    0.000000    1.400000
     42          0           0        0.000000    0.000000    1.500000
     43          0           0        0.000000    0.000000    1.600000
     44          0           0        0.000000    0.000000    1.700000
     45          0           0        0.000000    0.000000    1.800000
     46          0           0        0.000000    0.000000    1.900000
     47          0           0        0.000000    0.000000    2.000000
     48          0           0        0.000000    0.000000    2.100000
     49          0           0        0.000000    0.000000    2.200000
     50          0           0        0.000000    0.000000    2.300000
     51          0           0        0.000000    0.000000    2.400000
     52          0           0        0.000000    0.000000    2.500000
     53          0           0        0.000000    0.000000    2.600000
     54          0           0        0.000000    0.000000    2.700000
     55          0           0        0.000000    0.000000    2.800000
     56          0           0        0.000000    0.000000    2.900000
     57          0           0        0.000000    0.000000    3.000000
     58          0           0        0.000000    0.000000    3.100000
     59          0           0        0.000000    0.000000    3.200000
     60          0           0        0.000000    0.000000    3.300000
     61          0           0        0.000000    0.000000    3.400000
     62          0           0        0.000000    0.000000    3.500000
     63          0           0        0.000000    0.000000    3.600000
     64          0           0        0.000000    0.000000    3.700000
     65          0           0        0.000000    0.000000    3.800000
     66          0           0        0.000000    0.000000    3.900000
 ---------------------------------------------------------------------
 Rotational constants (GHZ):      3.2005135      0.9494080      0.7522792
 Standard basis: 6-311+G(d) (5D, 7F)
 Warning:  center  27 has no basis functions!
 Warning:  center  28 has no basis functions!
 Warning:  center  29 has no basis functions!
 Warning:  center  30 has no basis functions!
 Warning:  center  31 has no basis functions!
 Warning:  center  32 has no basis functions!
 Warning:  center  33 has no basis functions!
 Warning:  center  34 has no basis functions!
 Warning:  center  35 has no basis functions!
 Warning:  center  36 has no basis functions!
 Warning:  center  37 has no basis functions!
 Warning:  center  38 has no basis functions!
 Warning:  center  39 has no basis functions!
 Warning:  center  40 has no basis functions!
 Warning:  center  41 has no basis functions!
 Warning:  center  42 has no basis functions!
 Warning:  center  43 has no basis functions!
 Warning:  center  44 has no basis functions!
 Warning:  center  45 has no basis functions!
 Warning:  center  46 has no basis functions!
 Warning:  center  47 has no basis functions!
 Warning:  center  48 has no basis functions!
 Warning:  center  49 has no basis functions!
 Warning:  center  50 has no basis functions!
 Warning:  center  51 has no basis functions!
 Warning:  center  52 has no basis functions!
 Warning:  center  53 has no basis functions!
 Warning:  center  54 has no basis functions!
 Warning:  center  55 has no basis functions!
 Warning:  center  56 has no basis functions!
 Warning:  center  57 has no basis functions!
 Warning:  center  58 has no basis functions!
 Warning:  center  59 has no basis functions!
 Warning:  center  60 has no basis functions!
 Warning:  center  61 has no basis functions!
 Warning:  center  62 has no basis functions!
 Warning:  center  63 has no basis functions!
 Warning:  center  64 has no basis functions!
 Warning:  center  65 has no basis functions!
 Warning:  center  66 has no basis functions!
   268 basis functions,   440 primitive gaussians,   278 cartesian basis functions
    39 alpha electrons       39 beta electrons
       nuclear repulsion energy       612.4368515709 Hartrees.
 NAtoms=   66 NActive=   66 NUniq=   66 SFac= 1.00D+00 NAtFMM=   60 NAOKFM=T Big=T
 Integral buffers will be    131072 words long.
 Raffenetti 2 integral format.
 Two-electron integral symmetry is turned off.
 One-electron integrals computed using PRISM.
 NBasis=   268 RedAO= T EigKep=  1.66D-06  NBF=   268
 NBsUse=   267 1.00D-06 EigRej=  6.13D-07 NBFU=   267
 ExpMin= 4.38D-02 ExpMax= 8.59D+03 ExpMxC= 1.30D+03 IAcc=3 IRadAn=         5 AccDes= 0.00D+00
 Harris functional with IExCor=  402 and IRadAn=       5 diagonalized for initial guess.
 HarFok:  IExCor=  402 AccDes= 0.00D+00 IRadAn=         5 IDoV= 1 UseB2=F ITyADJ=14
 ICtDFT=  3500011 ScaDFX=  1.000000  1.000000  1.000000  1.000000
 FoFCou: FMM=F IPFlag=           0 FMFlag=      100000 FMFlg1=        2001
         NFxFlg=           0 DoJE=T BraDBF=F KetDBF=T FulRan=T
         wScrn=  0.000000 ICntrl=     500 IOpCl=  0 I1Cent=   200000004 NGrid=           0
         NMat0=    1 NMatS0=      1 NMatT0=    0 NMatD0=    1 NMtDS0=    0 NMtDT0=    0
 Symmetry not used in FoFCou.
 Keep R1 ints in memory in canonical form, NReq=661035311.
 Requested convergence on RMS density matrix=1.00D-08 within 512 cycles.
 Requested convergence on MAX density matrix=1.00D-06.
 Requested convergence on             energy=1.00D-06.
 No special actions if energy rises.
 SCF Done:  E(RB3LYP) =  -426.970538346     A.U. after   17 cycles
            NFock= 17  Conv=0.87D-08     -V/T= 1.9902
 DoSCS=F DFT=T ScalE2(SS,OS)=  1.000000  1.000000
 Range of M.O.s used for correlation:     1   267
 NBasis=   268 NAE=    39 NBE=    39 NFC=     0 NFV=     0
 NROrb=    267 NOA=    39 NOB=    39 NVA=   228 NVB=   228

 **** Warning!!: The largest alpha MO coefficient is  0.19067067D+03


 **** Warning!!: The smallest alpha delta epsilon is  0.92535006D-01

          Differentiating once with respect to magnetic field using GIAOs.
          Electric field/nuclear overlap derivatives assumed to be zero.
 Keep R3 ints in memory in canonical form, NReq=660550538.
 FoFJK:  IHMeth= 1 ICntrl=    6127 DoSepK=F KAlg= 0 I1Cent=   0 FoldK=F
 IRaf=         1 NMat=   1 IRICut=       1 DoRegI=T DoRafI=F ISym2E= 0.
          There are     3 degrees of freedom in the 1st order CPHF.  IDoFFX=0 NUNeed=     3.
      3 vectors produced by pass  0 Test12= 2.96D-13 3.33D-08 XBig12= 2.00D+02 3.94D+00.
 AX will form     3 AO Fock derivatives at one time.
      3 vectors produced by pass  1 Test12= 2.96D-13 3.33D-08 XBig12= 6.57D-01 3.43D-01.
      3 vectors produced by pass  2 Test12= 2.96D-13 3.33D-08 XBig12= 3.85D-03 3.79D-02.
      3 vectors produced by pass  3 Test12= 2.96D-13 3.33D-08 XBig12= 2.21D-05 1.65D-03.
      3 vectors produced by pass  4 Test12= 2.96D-13 3.33D-08 XBig12= 8.02D-08 8.92D-05.
      3 vectors produced by pass  5 Test12= 2.96D-13 3.33D-08 XBig12= 2.79D-10 4.97D-06.
      3 vectors produced by pass  6 Test12= 2.96D-13 3.33D-08 XBig12= 9.27D-13 3.10D-07.
 InvSVY:  IOpt=1 It=  1 EMax= 1.23D-16
 Solved reduced A of dimension    21 with     3 vectors.
 Calculating GIAO nuclear magnetic shielding tensors.
 SCF GIAO Magnetic shielding tensor (ppm):
      1  C    Isotropic =   196.2264   Anisotropy =    46.9356
   XX=   212.3363   YX=    12.3130   ZX=    -5.2821
   XY=     3.8326   YY=   223.2067   ZY=    -1.3119
   XZ=     1.5062   YZ=     1.0632   ZZ=   153.1364
   Eigenvalues:   153.0760   208.0865   227.5168
      2  C    Isotropic =   209.0009   Anisotropy =    57.9560
   XX=   245.9551   YX=    -6.0466   ZX=     7.5623
   XY=    -4.8942   YY=   227.9821   ZY=     3.2567
   XZ=     0.2579   YZ=    -3.1694   ZZ=   153.0655
   Eigenvalues:   152.9002   226.4643   247.6382
      3  C    Isotropic =   209.0163   Anisotropy =    57.9344
   XX=   238.2446   YX=    -9.8489   ZX=    -1.3648
   XY=   -11.0312   YY=   235.6958   ZY=     8.1291
   XZ=    -2.8463   YZ=    -1.4710   ZZ=   153.1085
   Eigenvalues:   152.9408   226.4689   247.6393
      4  C    Isotropic =   196.2152   Anisotropy =    46.9129
   XX=   212.6356   YX=     4.0262   ZX=     1.7716
   XY=    12.5084   YY=   222.8720   ZY=    -5.1368
   XZ=     0.1023   YZ=     1.8278   ZZ=   153.1379
   Eigenvalues:   153.0767   208.0783   227.4904
      5  C    Isotropic =   205.6171   Anisotropy =    36.0448
   XX=   225.1423   YX=     0.8053   ZX=    -7.0054
   XY=    -4.1304   YY=   229.0318   ZY=     0.9149
   XZ=    -7.6553   YZ=    -6.9046   ZZ=   162.6772
   Eigenvalues:   161.6796   225.5248   229.6470
      6  C    Isotropic =   205.6154   Anisotropy =    36.0431
   XX=   229.4021   YX=    -1.3919   ZX=     4.5743
   XY=     3.5597   YY=   224.7650   ZY=    -5.3921
   XZ=    -1.6477   YZ=   -10.1719   ZZ=   162.6792
   Eigenvalues:   161.6815   225.5206   229.6442
      7  H    Isotropic =    31.2484   Anisotropy =    10.9564
   XX=    31.3473   YX=     1.1075   ZX=     0.1731
   XY=    -0.6876   YY=    38.5447   ZY=    -0.3585
   XZ=    -0.0177   YZ=     0.6861   ZZ=    23.8532
   Eigenvalues:    23.8506    31.3418    38.5527
      8  H    Isotropic =    31.2479   Anisotropy =    10.9573
   XX=    36.2393   YX=     2.4676   ZX=    -0.3953
   XY=     4.2633   YY=    33.6510   ZY=    -0.0460
   XZ=     0.5867   YZ=     0.3547   ZZ=    23.8534
   Eigenvalues:    23.8508    31.3401    38.5527
      9  H    Isotropic =    31.1187   Anisotropy =     8.8644
   XX=    36.2497   YX=    -1.9019   ZX=    -0.5854
   XY=    -1.8546   YY=    32.4735   ZY=     0.8511
   XZ=     0.0762   YZ=    -0.9946   ZZ=    24.6329
   Eigenvalues:    24.6256    31.7021    37.0283
     10  C    Isotropic =   175.3765   Anisotropy =    79.4548
   XX=   196.1091   YX=    39.5785   ZX=     4.4940
   XY=    17.0313   YY=   203.3297   ZY=    -9.2872
   XZ=     2.0119   YZ=    -4.5874   ZZ=   126.6905
   Eigenvalues:   125.5186   172.2644   228.3463
     11  C    Isotropic =   126.1469   Anisotropy =    58.0837
   XX=   163.2767   YX=    -2.9251   ZX=    -5.1782
   XY=    -2.9139   YY=   159.5177   ZY=    -9.5033
   XZ=    -6.5487   YZ=   -12.0066   ZZ=    55.6462
   Eigenvalues:    54.1996   159.3717   164.8694
     12  O    Isotropic =   269.7028   Anisotropy =   140.7635
   XX=   205.6859   YX=    81.2836   ZX=    13.6140
   XY=    81.2799   YY=   310.5461   ZY=    25.0003
   XZ=    10.1148   YZ=    18.5603   ZZ=   292.8766
   Eigenvalues:   161.3914   284.1719   363.5451
     13  C    Isotropic =   175.3243   Anisotropy =    79.5028
   XX=   175.3963   YX=     3.6691   ZX=   -10.2733
   XY=    26.2052   YY=   224.0083   ZY=    -1.2708
   XZ=    -5.0224   YZ=    -0.8383   ZZ=   126.5684
   Eigenvalues:   125.3829   172.2639   228.3262
     14  H    Isotropic =    30.8942   Anisotropy =     7.1768
   XX=    35.2575   YX=     1.5261   ZX=     0.8634
   XY=     1.6388   YY=    29.5064   ZY=    -0.1845
   XZ=    -1.8242   YZ=     1.2334   ZZ=    27.9187
   Eigenvalues:    27.6357    29.3681    35.6787
     15  H    Isotropic =    30.8928   Anisotropy =     7.1802
   XX=    29.7559   YX=    -1.9056   ZX=    -0.6253
   XY=    -2.0258   YY=    35.0109   ZY=     0.6202
   XZ=     2.0170   YZ=    -0.8695   ZZ=    27.9116
   Eigenvalues:    27.6346    29.3642    35.6796
     16  H    Isotropic =    31.1176   Anisotropy =     8.8645
   XX=    35.2926   YX=    -2.4709   ZX=     1.0346
   XY=    -2.5210   YY=    33.4248   ZY=    -0.0264
   XZ=    -0.8723   YZ=    -0.4810   ZZ=    24.6354
   Eigenvalues:    24.6280    31.6975    37.0272
     17  H    Isotropic =    22.8185   Anisotropy =    14.6767
   XX=    14.9839   YX=     8.7573   ZX=     3.3330
   XY=     4.9855   YY=    21.5626   ZY=    -1.7549
   XZ=     2.6897   YZ=    -3.0424   ZZ=    31.9091
   Eigenvalues:     9.9869    25.8657    32.6030
     18  H    Isotropic =    22.8160   Anisotropy =    14.6802
   XX=    13.3636   YX=     3.9470   ZX=    -3.2818
   XY=     7.7154   YY=    23.1758   ZY=     1.8479
   XZ=    -4.0172   YZ=     0.6115   ZZ=    31.9085
   Eigenvalues:     9.9807    25.8645    32.6028
     19  H    Isotropic =    25.8919   Anisotropy =    10.7148
   XX=    21.4893   YX=     8.5336   ZX=     4.5235
   XY=     2.5092   YY=    24.3198   ZY=    -2.9222
   XZ=     1.4574   YZ=    -3.0323   ZZ=    31.8665
   Eigenvalues:    16.0914    28.5491    33.0350
     20  H    Isotropic =    25.8933   Anisotropy =    10.7156
   XX=    18.4599   YX=     0.5537   ZX=    -4.9066
   XY=     6.5751   YY=    27.3509   ZY=     2.2169
   XZ=    -3.3370   YZ=    -0.4190   ZZ=    31.8691
   Eigenvalues:    16.0946    28.5482    33.0370
     21  H    Isotropic =    26.6013   Anisotropy =    10.3818
   XX=    18.0867   YX=    -6.2937   ZX=    -5.3426
   XY=    -5.7416   YY=    29.6321   ZY=    -3.5183
   XZ=    -2.9010   YZ=    -1.1378   ZZ=    32.0851
   Eigenvalues:    14.2767    32.0048    33.5225
     22  H    Isotropic =    26.5999   Anisotropy =    10.3828
   XX=    31.7223   YX=     3.0564   ZX=    -0.0626
   XY=     2.5024   YY=    15.9936   ZY=    -6.3974
   XZ=     0.6195   YZ=    -3.0558   ZZ=    32.0840
   Eigenvalues:    14.2726    32.0054    33.5218
     23  H    Isotropic =    26.5536   Anisotropy =    12.7333
   XX=    15.8406   YX=    -1.0339   ZX=    -1.0706
   XY=     1.2222   YY=    30.2461   ZY=     2.7823
   XZ=    -1.2941   YZ=     2.4034   ZZ=    33.5742
   Eigenvalues:    15.7571    28.8613    35.0425
     24  H    Isotropic =    18.1203   Anisotropy =    13.7085
   XX=     8.3473   YX=    10.2714   ZX=    -0.8997
   XY=    10.2721   YY=    21.6000   ZY=    -1.6581
   XZ=     0.5009   YZ=     0.9183   ZZ=    24.4136
   Eigenvalues:     2.7500    24.3516    27.2593
     25  H    Isotropic =    26.5497   Anisotropy =    12.7260
   XX=    25.9246   YX=     7.7271   ZX=     2.9180
   XY=     5.4719   YY=    20.1551   ZY=     0.6076
   XZ=     2.7165   YZ=     0.2041   ZZ=    33.5694
   Eigenvalues:    15.7541    28.8613    35.0337
     26  H    Isotropic =    20.4256   Anisotropy =    21.6236
   XX=     5.9235   YX=    11.4249   ZX=     2.3695
   XY=    11.4266   YY=    20.6645   ZY=     4.3448
   XZ=    -1.3141   YZ=    -2.4117   ZZ=    34.6888
   Eigenvalues:    -0.3027    26.7382    34.8413
     27  Bq   Isotropic =     0.5234   Anisotropy =    23.3226
   XX=     9.8035   YX=     3.4164   ZX=     0.6166
   XY=     3.4173   YY=    14.2055   ZY=     1.1357
   XZ=    -0.2956   YZ=    -0.5456   ZZ=   -22.4388
   Eigenvalues:   -22.4417     7.9401    16.0718
     28  Bq   Isotropic =     0.5809   Anisotropy =    23.3028
   XX=     9.9340   YX=     3.3670   ZX=     0.6752
   XY=     3.3688   YY=    14.2738   ZY=     1.2425
   XZ=    -0.2261   YZ=    -0.4159   ZZ=   -22.4652
   Eigenvalues:   -22.4709     8.0975    16.1161
     29  Bq   Isotropic =     0.4752   Anisotropy =    22.3512
   XX=     9.4499   YX=     3.2245   ZX=     0.7229
   XY=     3.2269   YY=    13.6069   ZY=     1.3295
   XZ=    -0.1334   YZ=    -0.2435   ZZ=   -21.6311
   Eigenvalues:   -21.6414     7.6910    15.3760
     30  Bq   Isotropic =     0.2706   Anisotropy =    20.6031
   XX=     8.4800   YX=     3.0020   ZX=     0.7618
   XY=     3.0047   YY=    12.3507   ZY=     1.4003
   XZ=    -0.0192   YZ=    -0.0318   ZZ=   -20.0188
   Eigenvalues:   -20.0366     6.8425    14.0061
     31  Bq   Isotropic =     0.0311   Anisotropy =    18.2656
   XX=     7.1864   YX=     2.7204   ZX=     0.7931
   XY=     2.7232   YY=    10.6942   ZY=     1.4573
   XZ=     0.1104   YZ=     0.2079   ZZ=   -17.7873
   Eigenvalues:   -17.8172     5.7023    12.2082
     32  Bq   Isotropic =    -0.1921   Anisotropy =    15.5787
   XX=     5.7326   YX=     2.4043   ZX=     0.8178
   XY=     2.4070   YY=     8.8328   ZY=     1.5023
   XZ=     0.2469   YZ=     0.4600   ZZ=   -15.1417
   Eigenvalues:   -15.1908     4.4209    10.1937
     33  Bq   Isotropic =    -0.3663   Anisotropy =    12.7777
   XX=     4.2600   YX=     2.0777   ZX=     0.8364
   XY=     2.0801   YY=     6.9389   ZY=     1.5362
   XZ=     0.3810   YZ=     0.7072   ZZ=   -12.2978
   Eigenvalues:   -12.3774     3.1264     8.1521
     34  Bq   Isotropic =    -0.4781   Anisotropy =    10.0668
   XX=     2.8739   YX=     1.7608   ZX=     0.8493
   XY=     1.7628   YY=     5.1439   ZY=     1.5598
   XZ=     0.5047   YZ=     0.9347   ZZ=    -9.4522
   Eigenvalues:    -9.5806     1.9132     6.2331
     35  Bq   Isotropic =    -0.5289   Anisotropy =     7.6096
   XX=     1.6411   YX=     1.4682   ZX=     0.8569
   XY=     1.4698   YY=     3.5334   ZY=     1.5737
   XZ=     0.6120   YZ=     1.1317   ZZ=    -6.7613
   Eigenvalues:    -6.9708     0.8399     4.5441
     36  Bq   Isotropic =    -0.5293   Anisotropy =     5.5434
   XX=     0.5938   YX=     1.2086   ZX=     0.8595
   XY=     1.2097   YY=     2.1511   ZY=     1.5785
   XZ=     0.6995   YZ=     1.2919   ZZ=    -4.3327
   Eigenvalues:    -4.6884    -0.0657     3.1663
     37  Bq   Isotropic =    -0.4934   Anisotropy =     4.0389
   XX=    -0.2615   YX=     0.9855   ZX=     0.8574
   XY=     0.9862   YY=     1.0079   ZY=     1.5748
   XZ=     0.7664   YZ=     1.4138   ZZ=    -2.2267
   Eigenvalues:    -2.8802    -0.7993     2.1992
     38  Bq   Isotropic =    -0.4354   Anisotropy =     3.4196
   XX=    -0.9355   YX=     0.7987   ZX=     0.8511
   XY=     0.7991   YY=     0.0929   ZY=     1.5633
   XZ=     0.8132   YZ=     1.4986   ZZ=    -0.4638
   Eigenvalues:    -1.7793    -1.3713     1.8443
     39  Bq   Isotropic =    -0.3669   Anisotropy =     3.8738
   XX=    -1.4481   YX=     0.6453   ZX=     0.8409
   XY=     0.6455   YY=    -0.6176   ZY=     1.5448
   XZ=     0.8419   YZ=     1.5502   ZZ=     0.9651
   Eigenvalues:    -1.8003    -1.5160     2.2157
     40  Bq   Isotropic =    -0.2961   Anisotropy =     4.8068
   XX=    -1.8233   YX=     0.5212   ZX=     0.8274
   XY=     0.5212   YY=    -1.1528   ZY=     1.5202
   XZ=     0.8550   YZ=     1.5731   ZZ=     2.0876
   Eigenvalues:    -2.1077    -1.6891     2.9084
     41  Bq   Isotropic =    -0.2286   Anisotropy =     5.6897
   XX=    -2.0848   YX=     0.4219   ZX=     0.8110
   XY=     0.4217   YY=    -1.5424   ZY=     1.4902
   XZ=     0.8553   YZ=     1.5724   ZZ=     2.9414
   Eigenvalues:    -2.3150    -1.9354     3.5645
     42  Bq   Isotropic =    -0.1674   Anisotropy =     6.3727
   XX=    -2.2548   YX=     0.3427   ZX=     0.7922
   XY=     0.3424   YY=    -1.8145   ZY=     1.4557
   XZ=     0.8454   YZ=     1.5531   ZZ=     3.5672
   Eigenvalues:    -2.4419    -2.1413     4.0811
     43  Bq   Isotropic =    -0.1137   Anisotropy =     6.8449
   XX=    -2.3527   YX=     0.2798   ZX=     0.7714
   XY=     0.2795   YY=    -1.9935   ZY=     1.4176
   XZ=     0.8276   YZ=     1.5195   ZZ=     4.0051
   Eigenvalues:    -2.5055    -2.2852     4.4496
     44  Bq   Isotropic =    -0.0679   Anisotropy =     7.1328
   XX=    -2.3949   YX=     0.2296   ZX=     0.7491
   XY=     0.2293   YY=    -2.1004   ZY=     1.3767
   XZ=     0.8040   YZ=     1.4754   ZZ=     4.2915
   Eigenvalues:    -2.5203    -2.3708     4.6873
     45  Bq   Isotropic =    -0.0297   Anisotropy =     7.2704
   XX=    -2.3950   YX=     0.1893   ZX=     0.7256
   XY=     0.1890   YY=    -2.1523   ZY=     1.3336
   XZ=     0.7765   YZ=     1.4242   ZZ=     4.4581
   Eigenvalues:    -2.4984    -2.4080     4.8172
     46  Bq   Isotropic =     0.0016   Anisotropy =     7.2903
   XX=    -2.3639   YX=     0.1567   ZX=     0.7014
   XY=     0.1564   YY=    -2.1632   ZY=     1.2891
   XZ=     0.7464   YZ=     1.3685   ZZ=     4.5318
   Eigenvalues:    -2.4495    -2.4076     4.8618
     47  Bq   Isotropic =     0.0266   Anisotropy =     7.2209
   XX=    -2.3105   YX=     0.1299   ZX=     0.6767
   XY=     0.1297   YY=    -2.1443   ZY=     1.2436
   XZ=     0.7149   YZ=     1.3103   ZZ=     4.5347
   Eigenvalues:    -2.3817    -2.3791     4.8405
     48  Bq   Isotropic =     0.0462   Anisotropy =     7.0855
   XX=    -2.2418   YX=     0.1076   ZX=     0.6517
   XY=     0.1075   YY=    -2.1041   ZY=     1.1978
   XZ=     0.6829   YZ=     1.2513   ZZ=     4.4845
   Eigenvalues:    -2.3306    -2.3006     4.7699
     49  Bq   Isotropic =     0.0611   Anisotropy =     6.9031
   XX=    -2.1630   YX=     0.0888   ZX=     0.6268
   XY=     0.0888   YY=    -2.0494   ZY=     1.1519
   XZ=     0.6510   YZ=     1.1926   ZZ=     4.3956
   Eigenvalues:    -2.2683    -2.2116     4.6631
     50  Bq   Isotropic =     0.0719   Anisotropy =     6.6884
   XX=    -2.0782   YX=     0.0728   ZX=     0.6021
   XY=     0.0728   YY=    -1.9853   ZY=     1.1064
   XZ=     0.6197   YZ=     1.1351   ZZ=     4.2793
   Eigenvalues:    -2.1970    -2.1181     4.5309
     51  Bq   Isotropic =     0.0793   Anisotropy =     6.4531
   XX=    -1.9906   YX=     0.0589   ZX=     0.5777
   XY=     0.0590   YY=    -1.9155   ZY=     1.0616
   XZ=     0.5893   YZ=     1.0792   ZZ=     4.1442
   Eigenvalues:    -2.1204    -2.0229     4.3814
     52  Bq   Isotropic =     0.0839   Anisotropy =     6.2058
   XX=    -1.9024   YX=     0.0467   ZX=     0.5537
   XY=     0.0469   YY=    -1.8428   ZY=     1.0175
   XZ=     0.5600   YZ=     1.0254   ZZ=     3.9970
   Eigenvalues:    -2.0413    -1.9281     4.2212
     53  Bq   Isotropic =     0.0863   Anisotropy =     5.9532
   XX=    -1.8150   YX=     0.0360   ZX=     0.5303
   XY=     0.0363   YY=    -1.7692   ZY=     0.9744
   XZ=     0.5319   YZ=     0.9739   ZZ=     3.8429
   Eigenvalues:    -1.9614    -1.8349     4.0550
     54  Bq   Isotropic =     0.0868   Anisotropy =     5.7000
   XX=    -1.7297   YX=     0.0265   ZX=     0.5076
   XY=     0.0269   YY=    -1.6959   ZY=     0.9325
   XZ=     0.5051   YZ=     0.9247   ZZ=     3.6858
   Eigenvalues:    -1.8821    -1.7444     3.8868
     55  Bq   Isotropic =     0.0858   Anisotropy =     5.4498
   XX=    -1.6470   YX=     0.0181   ZX=     0.4854
   XY=     0.0186   YY=    -1.6240   ZY=     0.8918
   XZ=     0.4795   YZ=     0.8778   ZZ=     3.5286
   Eigenvalues:    -1.8043    -1.6572     3.7190
     56  Bq   Isotropic =     0.0839   Anisotropy =     5.2051
   XX=    -1.5676   YX=     0.0107   ZX=     0.4640
   XY=     0.0111   YY=    -1.5541   ZY=     0.8524
   XZ=     0.4552   YZ=     0.8333   ZZ=     3.3733
   Eigenvalues:    -1.7287    -1.5737     3.5539
     57  Bq   Isotropic =     0.0811   Anisotropy =     4.9675
   XX=    -1.4915   YX=     0.0040   ZX=     0.4433
   XY=     0.0045   YY=    -1.4866   ZY=     0.8143
   XZ=     0.4320   YZ=     0.7909   ZZ=     3.2214
   Eigenvalues:    -1.6555    -1.4940     3.3928
     58  Bq   Isotropic =     0.0778   Anisotropy =     4.7382
   XX=    -1.4190   YX=    -0.0019   ZX=     0.4233
   XY=    -0.0013   YY=    -1.4216   ZY=     0.7775
   XZ=     0.4100   YZ=     0.7507   ZZ=     3.0740
   Eigenvalues:    -1.5849    -1.4182     3.2366
     59  Bq   Isotropic =     0.0742   Anisotropy =     4.5179
   XX=    -1.3500   YX=    -0.0071   ZX=     0.4041
   XY=    -0.0066   YY=    -1.3593   ZY=     0.7422
   XZ=     0.3892   YZ=     0.7125   ZZ=     2.9319
   Eigenvalues:    -1.5172    -1.3464     3.0861
     60  Bq   Isotropic =     0.0704   Anisotropy =     4.3070
   XX=    -1.2845   YX=    -0.0118   ZX=     0.3856
   XY=    -0.0112   YY=    -1.2998   ZY=     0.7082
   XZ=     0.3694   YZ=     0.6762   ZZ=     2.7953
   Eigenvalues:    -1.4523    -1.2783     2.9417
     61  Bq   Isotropic =     0.0664   Anisotropy =     4.1055
   XX=    -1.2224   YX=    -0.0159   ZX=     0.3678
   XY=    -0.0153   YY=    -1.2429   ZY=     0.6756
   XZ=     0.3506   YZ=     0.6419   ZZ=     2.6646
   Eigenvalues:    -1.3902    -1.2140     2.8035
     62  Bq   Isotropic =     0.0625   Anisotropy =     3.9136
   XX=    -1.1636   YX=    -0.0195   ZX=     0.3508
   XY=    -0.0189   YY=    -1.1887   ZY=     0.6444
   XZ=     0.3328   YZ=     0.6093   ZZ=     2.5399
   Eigenvalues:    -1.3308    -1.1532     2.6716
     63  Bq   Isotropic =     0.0587   Anisotropy =     3.7309
   XX=    -1.1079   YX=    -0.0227   ZX=     0.3346
   XY=    -0.0221   YY=    -1.1371   ZY=     0.6145
   XZ=     0.3159   YZ=     0.5784   ZZ=     2.4211
   Eigenvalues:    -1.2741    -1.0958     2.5460
     64  Bq   Isotropic =     0.0549   Anisotropy =     3.5574
   XX=    -1.0553   YX=    -0.0254   ZX=     0.3190
   XY=    -0.0249   YY=    -1.0880   ZY=     0.5859
   XZ=     0.2999   YZ=     0.5491   ZZ=     2.3081
   Eigenvalues:    -1.2201    -1.0416     2.4265
     65  Bq   Isotropic =     0.0513   Anisotropy =     3.3926
   XX=    -1.0055   YX=    -0.0279   ZX=     0.3042
   XY=    -0.0273   YY=    -1.0414   ZY=     0.5586
   XZ=     0.2848   YZ=     0.5213   ZZ=     2.2008
   Eigenvalues:    -1.1686    -0.9905     2.3131
     66  Bq   Isotropic =     0.0479   Anisotropy =     3.2364
   XX=    -0.9584   YX=    -0.0299   ZX=     0.2900
   XY=    -0.0294   YY=    -0.9970   ZY=     0.5325
   XZ=     0.2704   YZ=     0.4951   ZZ=     2.0990
   Eigenvalues:    -1.1195    -0.9423     2.2054
 End of Minotr F.D. properties file   721 does not exist.
 End of Minotr F.D. properties file   722 does not exist.
 End of Minotr F.D. properties file   788 does not exist.

 **********************************************************************

            Population analysis using the SCF density.

 **********************************************************************

 Alpha  occ. eigenvalues --  -19.12408 -10.19802 -10.13585 -10.13584 -10.13525
 Alpha  occ. eigenvalues --  -10.13525 -10.13438 -10.13407 -10.13407 -10.13385
 Alpha  occ. eigenvalues --   -1.14636  -0.94436  -0.87783  -0.84906  -0.77680
 Alpha  occ. eigenvalues --   -0.74409  -0.64298  -0.62569  -0.61563  -0.58688
 Alpha  occ. eigenvalues --   -0.54871  -0.52849  -0.51652  -0.48350  -0.45819
 Alpha  occ. eigenvalues --   -0.45733  -0.44491  -0.42506  -0.41667  -0.39877
 Alpha  occ. eigenvalues --   -0.38921  -0.37453  -0.34034  -0.32741  -0.28165
 Alpha  occ. eigenvalues --   -0.25086  -0.23630  -0.20606  -0.15176
 Alpha virt. eigenvalues --   -0.05922  -0.02178   0.00603   0.01177   0.02627
 Alpha virt. eigenvalues --    0.03491   0.03582   0.04231   0.04700   0.05528
 Alpha virt. eigenvalues --    0.06360   0.07318   0.08019   0.08185   0.08747
 Alpha virt. eigenvalues --    0.09976   0.10317   0.10624   0.12058   0.13644
 Alpha virt. eigenvalues --    0.13657   0.13740   0.14815   0.15001   0.15219
 Alpha virt. eigenvalues --    0.16179   0.16643   0.17292   0.18045   0.18146
 Alpha virt. eigenvalues --    0.18827   0.19588   0.19917   0.20446   0.20827
 Alpha virt. eigenvalues --    0.20975   0.21442   0.21658   0.23304   0.23382
 Alpha virt. eigenvalues --    0.23816   0.24154   0.24928   0.25396   0.26117
 Alpha virt. eigenvalues --    0.26429   0.27560   0.28186   0.29620   0.29970
 Alpha virt. eigenvalues --    0.30670   0.30831   0.31601   0.32691   0.33612
 Alpha virt. eigenvalues --    0.33886   0.35279   0.35568   0.35939   0.36913
 Alpha virt. eigenvalues --    0.37426   0.40361   0.40438   0.42255   0.42698
 Alpha virt. eigenvalues --    0.44245   0.45913   0.46586   0.48556   0.49453
 Alpha virt. eigenvalues --    0.50981   0.51711   0.53802   0.55890   0.57022
 Alpha virt. eigenvalues --    0.60244   0.61659   0.65873   0.66401   0.66835
 Alpha virt. eigenvalues --    0.66986   0.67435   0.68778   0.68881   0.70656
 Alpha virt. eigenvalues --    0.72158   0.72947   0.74101   0.75321   0.76287
 Alpha virt. eigenvalues --    0.77188   0.77991   0.78084   0.80251   0.81261
 Alpha virt. eigenvalues --    0.82119   0.82206   0.83922   0.84096   0.85706
 Alpha virt. eigenvalues --    0.87627   0.87758   0.88462   0.90144   0.90580
 Alpha virt. eigenvalues --    0.93106   0.96293   0.98144   0.99593   1.00812
 Alpha virt. eigenvalues --    1.01956   1.04455   1.06878   1.09350   1.10369
 Alpha virt. eigenvalues --    1.13055   1.13072   1.15216   1.15737   1.17917
 Alpha virt. eigenvalues --    1.19265   1.22622   1.23444   1.26035   1.28647
 Alpha virt. eigenvalues --    1.32490   1.33018   1.35000   1.38933   1.39102
 Alpha virt. eigenvalues --    1.48488   1.49640   1.57096   1.57299   1.58697
 Alpha virt. eigenvalues --    1.59072   1.61318   1.63762   1.66039   1.71191
 Alpha virt. eigenvalues --    1.71854   1.72604   1.74464   1.78741   1.80739
 Alpha virt. eigenvalues --    1.82466   1.85981   1.87221   1.90016   1.92513
 Alpha virt. eigenvalues --    1.93932   1.95002   1.99676   2.01558   2.05106
 Alpha virt. eigenvalues --    2.06431   2.10948   2.16547   2.16966   2.22917
 Alpha virt. eigenvalues --    2.27845   2.31191   2.32762   2.34354   2.36806
 Alpha virt. eigenvalues --    2.37930   2.46125   2.49226   2.51574   2.58217
 Alpha virt. eigenvalues --    2.61397   2.65028   2.68247   2.68834   2.71884
 Alpha virt. eigenvalues --    2.74634   2.79446   2.80254   2.83811   2.85354
 Alpha virt. eigenvalues --    2.89214   2.90128   2.91307   3.04752   3.06078
 Alpha virt. eigenvalues --    3.08803   3.09783   3.13063   3.18307   3.22564
 Alpha virt. eigenvalues --    3.24572   3.27156   3.29116   3.32296   3.38273
 Alpha virt. eigenvalues --    3.38282   3.41129   3.47400   3.48310   3.53426
 Alpha virt. eigenvalues --    3.59830   3.64354   3.65209   3.69266   3.70787
 Alpha virt. eigenvalues --    3.79424   3.80393   3.87884   3.94741   4.02138
 Alpha virt. eigenvalues --    4.04723   4.16874   4.22274   4.55013   4.70388
 Alpha virt. eigenvalues --    5.16948   5.18335   5.71499  23.41081  23.87105
 Alpha virt. eigenvalues --   23.87336  23.94017  23.99300  24.22760  24.23035
 Alpha virt. eigenvalues --   24.25768  24.33287  50.05175
     Molecular Orbital Coefficients:
                           1         2         3         4         5
                           O         O         O         O         O
     Eigenvalues --   -19.12408 -10.19802 -10.13585 -10.13584 -10.13525
   1 1   C  1S          0.00000  -0.00003   0.39103   0.38010  -0.02997
   2        2S          0.00002   0.00002   0.32176   0.31299  -0.02465
   3        2PX        -0.00001  -0.00003  -0.00011   0.00005  -0.00012
   4        2PY         0.00000  -0.00007   0.00005   0.00007  -0.00009
   5        2PZ         0.00000   0.00001  -0.00025  -0.00023   0.00002
   6        3S         -0.00026  -0.00028   0.01671   0.01465  -0.00146
   7        3PX         0.00006   0.00015   0.00249   0.00117   0.00047
   8        3PY         0.00005   0.00045  -0.00029  -0.00044   0.00015
   9        3PZ         0.00000  -0.00004  -0.00014  -0.00019  -0.00002
  10        4S          0.00361   0.00162  -0.04267  -0.02938   0.01371
  11        4PX        -0.00047  -0.00141  -0.00935  -0.00620   0.00559
  12        4PY        -0.00193  -0.00205   0.00963   0.00601  -0.00240
  13        4PZ        -0.00029   0.00019   0.00438   0.00413  -0.00270
  14        5S          0.00337   0.03047  -0.00092  -0.03147   0.00179
  15        5PX        -0.00035   0.00586  -0.01058  -0.00184  -0.00287
  16        5PY        -0.00117   0.00169  -0.01047   0.00775  -0.00454
  17        5PZ        -0.00013   0.00000  -0.00057   0.00102  -0.00144
  18        6D 0       -0.00002   0.00003  -0.00063  -0.00044   0.00009
  19        6D+1        0.00000   0.00001   0.00004   0.00003   0.00000
  20        6D-1       -0.00001  -0.00001   0.00001   0.00000   0.00013
  21        6D+2        0.00001   0.00012   0.00009  -0.00020   0.00041
  22        6D-2        0.00001   0.00003   0.00074   0.00049  -0.00022
  23 2   C  1S         -0.00001  -0.00007   0.04258   0.04164   0.10911
  24        2S          0.00004   0.00003   0.03506   0.03440   0.08990
  25        2PX         0.00000  -0.00006  -0.00014   0.00016  -0.00062
  26        2PY        -0.00007  -0.00007   0.00050   0.00054  -0.00041
  27        2PZ         0.00000  -0.00001  -0.00001  -0.00001  -0.00010
  28        3S         -0.00022  -0.00071   0.00230   0.00122   0.00586
  29        3PX         0.00009   0.00049   0.00042  -0.00102   0.00273
  30        3PY         0.00052   0.00081  -0.00180  -0.00219   0.00176
  31        3PZ        -0.00003   0.00004  -0.00002  -0.00003   0.00009
  32        4S         -0.00722  -0.00661   0.00068   0.00387  -0.02094
  33        4PX         0.00213   0.00216   0.00331   0.00464  -0.01648
  34        4PY        -0.00159  -0.00060   0.02265   0.01210  -0.00443
  35        4PZ        -0.00016  -0.00061   0.00121  -0.00071   0.00553
  36        5S         -0.00331  -0.03022   0.03714   0.01589   0.00236
  37        5PX         0.00135   0.00453   0.03569   0.00146   0.01811
  38        5PY        -0.00023  -0.01024  -0.01424   0.00975  -0.00233
  39        5PZ        -0.00015   0.00002   0.00175   0.00018   0.00252
  40        6D 0        0.00003  -0.00001   0.00025   0.00026   0.00047
  41        6D+1        0.00003  -0.00001   0.00002  -0.00001   0.00014
  42        6D-1        0.00000   0.00000  -0.00008  -0.00012  -0.00002
  43        6D+2        0.00004  -0.00037   0.00111   0.00068  -0.00003
  44        6D-2       -0.00016  -0.00030  -0.00004   0.00039  -0.00171
  45 3   C  1S         -0.00001  -0.00007  -0.04161   0.04249  -0.10533
  46        2S          0.00004   0.00003  -0.03426   0.03511  -0.08678
  47        2PX        -0.00006  -0.00002  -0.00048   0.00038   0.00000
  48        2PY        -0.00004  -0.00009  -0.00014   0.00043   0.00073
  49        2PZ         0.00000  -0.00001   0.00001  -0.00001   0.00010
  50        3S         -0.00022  -0.00071  -0.00227   0.00127  -0.00574
  51        3PX         0.00039   0.00042   0.00172  -0.00132   0.00004
  52        3PY         0.00035   0.00085   0.00058  -0.00206  -0.00318
  53        3PZ        -0.00003   0.00004   0.00002  -0.00003  -0.00010
  54        4S         -0.00722  -0.00661  -0.00060   0.00389   0.02114
  55        4PX        -0.00249  -0.00168  -0.01707   0.00802  -0.00543
  56        4PY         0.00093   0.00149  -0.01483   0.01078   0.01588
  57        4PZ        -0.00016  -0.00061  -0.00122  -0.00069  -0.00550
  58        5S         -0.00331  -0.03022  -0.03680   0.01669  -0.00333
  59        5PX        -0.00093  -0.01106   0.03146   0.00673   0.01099
  60        5PY         0.00101  -0.00174  -0.02212   0.00698  -0.01444
  61        5PZ        -0.00015   0.00002  -0.00175   0.00022  -0.00251
  62        6D 0        0.00003  -0.00001  -0.00024   0.00027  -0.00047
  63        6D+1       -0.00002   0.00000   0.00008  -0.00009   0.00010
  64        6D-1        0.00002   0.00000   0.00003  -0.00008  -0.00010
  65        6D+2        0.00013   0.00043   0.00041  -0.00064  -0.00155
  66        6D-2       -0.00010   0.00021   0.00102  -0.00049   0.00068
  67 4   C  1S          0.00000  -0.00003  -0.38278   0.38843   0.02933
  68        2S          0.00002   0.00002  -0.31497   0.31985   0.02413
  69        2PX         0.00000  -0.00004  -0.00010   0.00003   0.00001
  70        2PY        -0.00001  -0.00006   0.00007   0.00008   0.00014
  71        2PZ         0.00000   0.00001   0.00024  -0.00024  -0.00002
  72        3S         -0.00026  -0.00028  -0.01639   0.01501   0.00141
  73        3PX         0.00001   0.00029   0.00158  -0.00104   0.00015
  74        3PY         0.00008   0.00037  -0.00192   0.00079  -0.00044
  75        3PZ         0.00000  -0.00004   0.00014  -0.00020   0.00002
  76        4S          0.00361   0.00162   0.04203  -0.03029  -0.01340
  77        4PX        -0.00137  -0.00096  -0.01298   0.00870   0.00489
  78        4PY        -0.00144  -0.00229   0.00259  -0.00201  -0.00341
  79        4PZ        -0.00029   0.00019  -0.00429   0.00423   0.00267
  80        5S          0.00337   0.03047   0.00025  -0.03149   0.00014
  81        5PX        -0.00079  -0.00176   0.00322   0.00745   0.00196
  82        5PY        -0.00092   0.00584   0.01462   0.00234   0.00487
  83        5PZ        -0.00013   0.00000   0.00059   0.00101   0.00142
  84        6D 0       -0.00002   0.00003   0.00062  -0.00045  -0.00008
  85        6D+1        0.00000  -0.00002   0.00001  -0.00002  -0.00011
  86        6D-1        0.00000   0.00000  -0.00004   0.00003  -0.00007
  87        6D+2       -0.00001  -0.00008   0.00071  -0.00038  -0.00004
  88        6D-2        0.00000  -0.00010  -0.00021   0.00039   0.00045
  89 5   C  1S          0.00000  -0.00001  -0.07885   0.09396   0.00958
  90        2S          0.00000   0.00001  -0.06507   0.07768   0.00788
  91        2PX         0.00000   0.00000  -0.00034  -0.00008   0.00000
  92        2PY        -0.00002  -0.00002   0.00065  -0.00034   0.00004
  93        2PZ         0.00000   0.00000  -0.00002  -0.00002  -0.00001
  94        3S          0.00002  -0.00005  -0.00236   0.00231   0.00037
  95        3PX        -0.00003  -0.00001   0.00182   0.00026  -0.00002
  96        3PY         0.00012   0.00014  -0.00280   0.00116  -0.00040
  97        3PZ         0.00000  -0.00001   0.00027  -0.00016   0.00000
  98        4S          0.00015   0.00135  -0.01044   0.00505   0.00652
  99        4PX         0.00052   0.00047   0.00493  -0.00197  -0.00063
 100        4PY         0.00006  -0.00043   0.00817  -0.00376  -0.00228
 101        4PZ         0.00009   0.00003  -0.00100  -0.00053  -0.00082
 102        5S         -0.00046  -0.01660  -0.00591   0.00430  -0.00228
 103        5PX         0.00039  -0.00132  -0.00445  -0.00319  -0.00208
 104        5PY         0.00009   0.00371   0.00654  -0.00051   0.00384
 105        5PZ         0.00006   0.00001  -0.00105  -0.00024  -0.00078
 106        6D 0        0.00002   0.00002  -0.00029   0.00050   0.00002
 107        6D+1        0.00000  -0.00001   0.00002   0.00002  -0.00001
 108        6D-1       -0.00002  -0.00001  -0.00005   0.00010   0.00003
 109        6D+2        0.00003   0.00006  -0.00178   0.00077  -0.00009
 110        6D-2       -0.00001   0.00000   0.00054   0.00036   0.00007
 111 6   C  1S          0.00000  -0.00001   0.08088   0.09228  -0.01010
 112        2S          0.00000   0.00001   0.06675   0.07629  -0.00831
 113        2PX        -0.00002  -0.00002  -0.00074  -0.00023  -0.00003
 114        2PY        -0.00001  -0.00001  -0.00007  -0.00025  -0.00002
 115        2PZ         0.00000   0.00000   0.00002  -0.00002   0.00001
 116        3S          0.00002  -0.00005   0.00241   0.00226  -0.00042
 117        3PX         0.00012   0.00013   0.00336   0.00077   0.00034
 118        3PY         0.00004   0.00007   0.00000   0.00085   0.00026
 119        3PZ         0.00000  -0.00001  -0.00027  -0.00016   0.00000
 120        4S          0.00015   0.00135   0.01054   0.00482  -0.00652
 121        4PX        -0.00024  -0.00062  -0.00423  -0.00200   0.00157
 122        4PY         0.00047   0.00016  -0.00865  -0.00351   0.00173
 123        4PZ         0.00009   0.00003   0.00099  -0.00055   0.00080
 124        5S         -0.00046  -0.01660   0.00600   0.00416   0.00187
 125        5PX        -0.00014   0.00383  -0.00787   0.00148  -0.00429
 126        5PY         0.00037   0.00090   0.00013  -0.00296  -0.00029
 127        5PZ         0.00006   0.00001   0.00105  -0.00026   0.00078
 128        6D 0        0.00002   0.00002   0.00030   0.00049  -0.00002
 129        6D+1       -0.00001   0.00000   0.00005   0.00007  -0.00003
 130        6D-1       -0.00001  -0.00001   0.00001   0.00007  -0.00001
 131        6D+2       -0.00001  -0.00003  -0.00026  -0.00064   0.00003
 132        6D-2       -0.00003  -0.00005  -0.00186  -0.00051  -0.00012
 133 7   H  1S          0.00001   0.00000  -0.00019  -0.00025  -0.00001
 134        2S         -0.00014  -0.00015   0.00124   0.00006   0.00017
 135        3S         -0.00003  -0.00006   0.00281   0.00223  -0.00027
 136 8   H  1S          0.00001   0.00000   0.00018  -0.00025   0.00001
 137        2S         -0.00014  -0.00015  -0.00124   0.00009  -0.00017
 138        3S         -0.00003  -0.00006  -0.00276   0.00229   0.00029
 139 9   H  1S          0.00001   0.00003  -0.00015   0.00009   0.00007
 140        2S         -0.00025  -0.00042  -0.00023  -0.00005  -0.00008
 141        3S          0.00010   0.00029   0.00085   0.00058  -0.00142
 142 10  C  1S         -0.00001   0.00103  -0.02013   0.01164  -0.37647
 143        2S          0.00003   0.00091  -0.01659   0.00976  -0.30980
 144        2PX        -0.00008  -0.00043  -0.00009   0.00011  -0.00014
 145        2PY        -0.00010  -0.00007  -0.00002   0.00012   0.00006
 146        2PZ         0.00000   0.00004   0.00003   0.00002   0.00026
 147        3S         -0.00018  -0.00036  -0.00089  -0.00079  -0.01601
 148        3PX         0.00030   0.00077   0.00046  -0.00045   0.00089
 149        3PY         0.00039   0.00030  -0.00011  -0.00089  -0.00275
 150        3PZ        -0.00001  -0.00011  -0.00003  -0.00011   0.00026
 151        4S          0.00532   0.01494  -0.01111   0.00949   0.02874
 152        4PX        -0.00163  -0.00568   0.00202  -0.00173  -0.00322
 153        4PY         0.00574   0.00456  -0.00394   0.00485   0.00479
 154        4PZ         0.00095  -0.00148   0.00043  -0.00026  -0.00408
 155        5S         -0.00674   0.03076  -0.01625   0.00840  -0.00321
 156        5PX         0.00100   0.00406  -0.00667   0.00005  -0.00731
 157        5PY        -0.00069   0.01033  -0.00603   0.00260  -0.00554
 158        5PZ         0.00078  -0.00055   0.00049  -0.00039  -0.00009
 159        6D 0        0.00000   0.00033  -0.00008   0.00009   0.00050
 160        6D+1       -0.00009   0.00011   0.00004  -0.00004   0.00009
 161        6D-1       -0.00001   0.00001   0.00002   0.00002   0.00004
 162        6D+2       -0.00024  -0.00093  -0.00019   0.00040   0.00058
 163        6D-2       -0.00030   0.00016   0.00025  -0.00033  -0.00037
 164 11  C  1S         -0.00002   0.56270   0.00000   0.00000  -0.00002
 165        2S          0.00008   0.46310   0.00000   0.00007  -0.00001
 166        2PX        -0.00019  -0.00051  -0.00008   0.00006  -0.00043
 167        2PY        -0.00035  -0.00094   0.00005   0.00010   0.00024
 168        2PZ         0.00002  -0.00013   0.00000   0.00001   0.00000
 169        3S          0.00044   0.02207  -0.00001  -0.00049  -0.00002
 170        3PX         0.00047  -0.00047   0.00039  -0.00034   0.00076
 171        3PY         0.00086  -0.00087  -0.00022  -0.00061  -0.00044
 172        3PZ        -0.00007  -0.00047   0.00000  -0.00005   0.00000
 173        4S          0.01031  -0.03252  -0.00005  -0.00451   0.00044
 174        4PX        -0.00800  -0.00687   0.00116   0.00110  -0.00669
 175        4PY        -0.01468  -0.01260  -0.00060   0.00205   0.00396
 176        4PZ        -0.00294   0.00585   0.00000  -0.00011  -0.00007
 177        5S          0.01487  -0.02967   0.00001   0.00073   0.00005
 178        5PX         0.00192  -0.00762  -0.00401  -0.00027  -0.00755
 179        5PY         0.00352  -0.01398   0.00217  -0.00060   0.00403
 180        5PZ        -0.00126   0.00148   0.00000   0.00018  -0.00001
 181        6D 0        0.00031  -0.00113   0.00000   0.00002   0.00000
 182        6D+1        0.00004   0.00006  -0.00001   0.00002   0.00015
 183        6D-1        0.00007   0.00012   0.00001   0.00004  -0.00009
 184        6D+2        0.00044  -0.00080   0.00019  -0.00013   0.00093
 185        6D-2       -0.00069   0.00125   0.00013   0.00019   0.00061
 186 12  O  1S          0.55124  -0.00009   0.00000   0.00000   0.00000
 187        2S          0.46957  -0.00009   0.00000   0.00003   0.00000
 188        2PX         0.00048   0.00026  -0.00001   0.00002  -0.00002
 189        2PY         0.00088   0.00048   0.00000   0.00004   0.00001
 190        2PZ        -0.00106  -0.00004   0.00000   0.00000   0.00000
 191        3S          0.01532   0.00089   0.00000  -0.00027   0.00000
 192        3PX         0.00047  -0.00078   0.00003  -0.00012   0.00009
 193        3PY         0.00085  -0.00143  -0.00002  -0.00021  -0.00006
 194        3PZ         0.00028   0.00011   0.00000   0.00001   0.00000
 195        4S         -0.01854  -0.00771   0.00001   0.00109   0.00002
 196        4PX        -0.00230  -0.00154  -0.00013   0.00032   0.00094
 197        4PY        -0.00422  -0.00282   0.00008   0.00057  -0.00052
 198        4PZ         0.00065  -0.00022   0.00000   0.00010   0.00001
 199        5S         -0.00398   0.00786   0.00005   0.00475   0.00017
 200        5PX        -0.00099   0.00227  -0.00005   0.00070   0.00070
 201        5PY        -0.00181   0.00417   0.00005   0.00129  -0.00029
 202        5PZ        -0.00060  -0.00326  -0.00001  -0.00086  -0.00001
 203        6D 0       -0.00010   0.00048   0.00000   0.00002   0.00000
 204        6D+1        0.00001   0.00003   0.00000   0.00000   0.00001
 205        6D-1        0.00002   0.00005   0.00000   0.00001  -0.00001
 206        6D+2       -0.00010   0.00056   0.00001   0.00003   0.00019
 207        6D-2        0.00015  -0.00086   0.00001  -0.00005   0.00012
 208 13  C  1S         -0.00001   0.00102   0.02040   0.01122   0.38713
 209        2S          0.00003   0.00091   0.01681   0.00941   0.31858
 210        2PX        -0.00004   0.00017  -0.00003   0.00004  -0.00013
 211        2PY        -0.00012  -0.00040   0.00009   0.00015   0.00009
 212        2PZ         0.00000   0.00004  -0.00003   0.00002  -0.00026
 213        3S         -0.00018  -0.00036   0.00087  -0.00081   0.01644
 214        3PX         0.00017  -0.00016   0.00033  -0.00051   0.00283
 215        3PY         0.00046   0.00081  -0.00035  -0.00085   0.00077
 216        3PZ        -0.00001  -0.00011   0.00003  -0.00011  -0.00026
 217        4S          0.00532   0.01494   0.01131   0.00925  -0.03000
 218        4PX         0.00571   0.00691   0.00452   0.00492  -0.00627
 219        4PY         0.00174  -0.00230   0.00047   0.00117   0.00020
 220        4PZ         0.00095  -0.00148  -0.00044  -0.00025   0.00421
 221        5S         -0.00674   0.03076   0.01643   0.00806   0.00255
 222        5PX        -0.00112   0.00648   0.00150   0.00213   0.00053
 223        5PY         0.00047   0.00901   0.00891   0.00126   0.00935
 224        5PZ         0.00078  -0.00055  -0.00050  -0.00038   0.00011
 225        6D 0        0.00000   0.00033   0.00008   0.00008  -0.00051
 226        6D+1        0.00004  -0.00005   0.00000   0.00004   0.00002
 227        6D-1       -0.00008   0.00010  -0.00004  -0.00002  -0.00010
 228        6D+2        0.00037   0.00024   0.00015   0.00013  -0.00010
 229        6D-2        0.00009   0.00091  -0.00028  -0.00050   0.00070
 230 14  H  1S         -0.00017  -0.00008  -0.00001  -0.00011   0.00006
 231        2S          0.00113   0.00035   0.00001   0.00014   0.00099
 232        3S          0.00153   0.00157   0.00124   0.00130   0.00079
 233 15  H  1S         -0.00017  -0.00008   0.00001  -0.00011  -0.00006
 234        2S          0.00113   0.00035  -0.00001   0.00014  -0.00102
 235        3S          0.00153   0.00157  -0.00121   0.00132  -0.00086
 236 16  H  1S          0.00001   0.00003   0.00016   0.00008  -0.00008
 237        2S         -0.00025  -0.00042   0.00023  -0.00006   0.00008
 238        3S          0.00010   0.00029  -0.00084   0.00059   0.00145
 239 17  H  1S          0.00004   0.00011  -0.00023  -0.00005  -0.00023
 240        2S         -0.00018  -0.00092   0.00178  -0.00005   0.00395
 241        3S         -0.00029  -0.00002  -0.00003  -0.00072   0.00388
 242 18  H  1S          0.00004   0.00011   0.00023  -0.00006   0.00022
 243        2S         -0.00018  -0.00092  -0.00178  -0.00002  -0.00390
 244        3S         -0.00029  -0.00002   0.00001  -0.00072  -0.00386
 245 19  H  1S          0.00000  -0.00004  -0.00054  -0.00040   0.00011
 246        2S         -0.00023   0.00005   0.00431   0.00286  -0.00116
 247        3S         -0.00027   0.00002   0.00403   0.00560  -0.00242
 248 20  H  1S          0.00000  -0.00004   0.00053  -0.00041  -0.00011
 249        2S         -0.00023   0.00005  -0.00425   0.00295   0.00113
 250        3S         -0.00027   0.00002  -0.00391   0.00569   0.00240
 251 21  H  1S          0.00000   0.00001   0.00029  -0.00013   0.00001
 252        2S          0.00001   0.00001  -0.00116   0.00010  -0.00012
 253        3S          0.00009   0.00005  -0.00130  -0.00059  -0.00051
 254 22  H  1S          0.00000   0.00001  -0.00029  -0.00013   0.00000
 255        2S          0.00001   0.00001   0.00116   0.00008   0.00009
 256        3S          0.00009   0.00005   0.00129  -0.00062   0.00051
 257 23  H  1S          0.00004  -0.00021  -0.00004   0.00004   0.00057
 258        2S         -0.00004  -0.00027   0.00012  -0.00072  -0.00430
 259        3S          0.00193  -0.00233   0.00008   0.00009  -0.00427
 260 24  H  1S          0.00007  -0.00056   0.00000   0.00006   0.00000
 261        2S         -0.00174   0.00378  -0.00001  -0.00047  -0.00003
 262        3S         -0.00407   0.00671   0.00000   0.00012  -0.00008
 263 25  H  1S          0.00004  -0.00021   0.00004   0.00004  -0.00058
 264        2S         -0.00004  -0.00027  -0.00014  -0.00071   0.00440
 265        3S          0.00193  -0.00233  -0.00008   0.00009   0.00442
 266 26  H  1S          0.00017   0.00028   0.00000  -0.00004   0.00000
 267        2S          0.00081   0.00025   0.00000   0.00033   0.00000
 268        3S         -0.00146  -0.00628  -0.00002  -0.00203  -0.00001
                           6         7         8         9        10
                           O         O         O         O         O
     Eigenvalues --   -10.13525 -10.13438 -10.13407 -10.13407 -10.13385
   1 1   C  1S         -0.02041  -0.08682   0.07127  -0.05499   0.04740
   2        2S         -0.01668  -0.07117   0.05846  -0.04514   0.03895
   3        2PX        -0.00012   0.00058  -0.00037   0.00010   0.00001
   4        2PY        -0.00030   0.00048  -0.00040  -0.00034   0.00023
   5        2PZ         0.00003   0.00006  -0.00009   0.00005  -0.00009
   6        3S         -0.00170  -0.00442   0.00389  -0.00247   0.00238
   7        3PX         0.00046  -0.00346   0.00185  -0.00065  -0.00004
   8        3PY         0.00144  -0.00231   0.00172   0.00094  -0.00034
   9        3PZ        -0.00009   0.00002   0.00011  -0.00004   0.00018
  10        4S          0.01053   0.00656  -0.02737   0.00785  -0.02218
  11        4PX         0.00241   0.00358  -0.01160  -0.00119  -0.01086
  12        4PY        -0.00459   0.00282   0.00515  -0.00305   0.00468
  13        4PZ        -0.00098  -0.00137   0.00172  -0.00200   0.00330
  14        5S          0.06705   0.00319  -0.01080   0.03260  -0.04936
  15        5PX         0.00576   0.00201  -0.00723   0.00321  -0.00901
  16        5PY        -0.00878   0.00019  -0.00408  -0.00341   0.00621
  17        5PZ        -0.00042  -0.00059   0.00077  -0.00109   0.00142
  18        6D 0        0.00010   0.00078  -0.00058   0.00051  -0.00039
  19        6D+1        0.00003  -0.00003   0.00009  -0.00006   0.00004
  20        6D-1        0.00000  -0.00001   0.00007   0.00003  -0.00015
  21        6D+2        0.00085  -0.00136   0.00085   0.00062  -0.00056
  22        6D-2       -0.00002  -0.00173   0.00124   0.00002   0.00001
  23 2   C  1S          0.12351  -0.06330   0.08075   0.36878  -0.37328
  24        2S          0.10190  -0.05194   0.06641   0.30337  -0.30706
  25        2PX        -0.00028   0.00001   0.00008   0.00043   0.00004
  26        2PY        -0.00054   0.00009   0.00002  -0.00001  -0.00022
  27        2PZ        -0.00002   0.00002  -0.00002  -0.00014   0.00025
  28        3S          0.00397  -0.00358   0.00340   0.01541  -0.01673
  29        3PX         0.00126  -0.00019  -0.00071  -0.00218   0.00145
  30        3PY         0.00243  -0.00075   0.00007  -0.00144   0.00146
  31        3PZ        -0.00019   0.00005  -0.00010  -0.00031  -0.00001
  32        4S          0.00773   0.00263   0.00021  -0.02465   0.05360
  33        4PX        -0.00661   0.00106   0.00501   0.00523   0.01671
  34        4PY        -0.01347   0.00273   0.01220   0.00159  -0.00341
  35        4PZ         0.00086  -0.00149   0.00168   0.00457  -0.00948
  36        5S         -0.03329  -0.00098   0.00545  -0.04525   0.12705
  37        5PX         0.00020   0.00029  -0.01211   0.00624  -0.00449
  38        5PY        -0.03225   0.00383  -0.02312  -0.00150  -0.01935
  39        5PZ         0.00037   0.00031   0.00061   0.00156  -0.00297
  40        6D 0        0.00025   0.00019  -0.00021  -0.00090   0.00108
  41        6D+1        0.00003   0.00004   0.00004  -0.00014  -0.00012
  42        6D-1        0.00012  -0.00001  -0.00004   0.00003   0.00005
  43        6D+2       -0.00069   0.00032  -0.00037  -0.00044   0.00027
  44        6D-2       -0.00075  -0.00029   0.00041   0.00171  -0.00107
  45 3   C  1S          0.12635  -0.06295  -0.04828   0.37053   0.37735
  46        2S          0.10424  -0.05165  -0.03970   0.30481   0.31041
  47        2PX        -0.00030   0.00007   0.00001  -0.00024   0.00021
  48        2PY        -0.00055   0.00005  -0.00005   0.00036   0.00009
  49        2PZ        -0.00002   0.00002   0.00001  -0.00014  -0.00026
  50        3S          0.00413  -0.00356  -0.00205   0.01547   0.01690
  51        3PX         0.00136  -0.00052  -0.00045   0.00001  -0.00043
  52        3PY         0.00247  -0.00057   0.00032  -0.00263  -0.00204
  53        3PZ        -0.00019   0.00005   0.00008  -0.00032   0.00000
  54        4S          0.00716   0.00261  -0.00236  -0.02398  -0.05385
  55        4PX        -0.00759   0.00175  -0.00764  -0.00095   0.01191
  56        4PY        -0.01330   0.00240  -0.01031   0.00632  -0.01213
  57        4PZ         0.00101  -0.00148  -0.00128   0.00461   0.00953
  58        5S         -0.03314  -0.00102  -0.00936  -0.04323  -0.12754
  59        5PX        -0.02754   0.00304   0.01241  -0.00591   0.01375
  60        5PY        -0.01691   0.00226   0.02301   0.00227   0.01429
  61        5PZ         0.00044   0.00031  -0.00047   0.00158   0.00298
  62        6D 0        0.00026   0.00019   0.00013  -0.00090  -0.00109
  63        6D+1        0.00008  -0.00003   0.00007   0.00010  -0.00011
  64        6D-1        0.00010   0.00003  -0.00002  -0.00010   0.00007
  65        6D+2        0.00101   0.00013   0.00010  -0.00138  -0.00088
  66        6D-2        0.00029  -0.00040  -0.00041   0.00114   0.00070
  67 4   C  1S         -0.02121  -0.08661  -0.07603  -0.04793  -0.04787
  68        2S         -0.01733  -0.07100  -0.06237  -0.03935  -0.03934
  69        2PX        -0.00019   0.00009   0.00011  -0.00035  -0.00019
  70        2PY        -0.00027   0.00074   0.00052  -0.00014  -0.00014
  71        2PZ         0.00003   0.00006   0.00009   0.00004   0.00009
  72        3S         -0.00174  -0.00441  -0.00411  -0.00209  -0.00240
  73        3PX         0.00096  -0.00006  -0.00034   0.00117   0.00028
  74        3PY         0.00118  -0.00415  -0.00249   0.00018   0.00023
  75        3PZ        -0.00009   0.00002  -0.00011  -0.00003  -0.00018
  76        4S          0.01091   0.00649   0.02796   0.00517   0.02225
  77        4PX        -0.00530   0.00046  -0.01074  -0.00087  -0.00984
  78        4PY        -0.00036   0.00452   0.00670  -0.00333   0.00655
  79        4PZ        -0.00105  -0.00136  -0.00189  -0.00181  -0.00332
  80        5S          0.06705   0.00318   0.01361   0.03099   0.04974
  81        5PX        -0.01056  -0.00093  -0.00090  -0.00444  -0.01016
  82        5PY        -0.00006   0.00177   0.00833   0.00007   0.00421
  83        5PZ        -0.00046  -0.00059  -0.00086  -0.00100  -0.00143
  84        6D 0        0.00010   0.00078   0.00062   0.00045   0.00039
  85        6D+1       -0.00001   0.00001  -0.00001   0.00005   0.00015
  86        6D-1        0.00003  -0.00003  -0.00012  -0.00002   0.00005
  87        6D+2       -0.00033   0.00214   0.00146  -0.00040  -0.00023
  88        6D-2       -0.00079   0.00052   0.00022  -0.00057  -0.00052
  89 5   C  1S         -0.01716   0.38116   0.38782   0.04285   0.06023
  90        2S         -0.01400   0.31369   0.31909   0.03537   0.04955
  91        2PX        -0.00004  -0.00024   0.00029  -0.00006   0.00009
  92        2PY        -0.00009   0.00052  -0.00001   0.00007  -0.00006
  93        2PZ         0.00002  -0.00018  -0.00028  -0.00003  -0.00006
  94        3S         -0.00171   0.01512   0.01605   0.00095   0.00267
  95        3PX         0.00040  -0.00023  -0.00127   0.00019  -0.00038
  96        3PY         0.00085  -0.00389  -0.00189  -0.00006   0.00040
  97        3PZ        -0.00005  -0.00032  -0.00002   0.00001   0.00006
  98        4S         -0.00036  -0.01660  -0.04558   0.00187  -0.02046
  99        4PX        -0.00085   0.00005   0.01513  -0.00039   0.00668
 100        4PY        -0.00043   0.00398   0.00729  -0.00063   0.00563
 101        4PZ        -0.00039   0.00345   0.00601  -0.00014   0.00180
 102        5S         -0.01416  -0.00745  -0.06205  -0.00910  -0.05288
 103        5PX         0.00011   0.00084   0.00929  -0.00012   0.00893
 104        5PY         0.00270   0.00083   0.00836   0.00213   0.00479
 105        5PZ         0.00018   0.00066   0.00197   0.00032   0.00076
 106        6D 0        0.00000  -0.00066  -0.00105  -0.00004  -0.00021
 107        6D+1       -0.00001   0.00001  -0.00014   0.00004   0.00000
 108        6D-1       -0.00001  -0.00006  -0.00003  -0.00001  -0.00005
 109        6D+2        0.00025  -0.00175  -0.00078  -0.00011   0.00017
 110        6D-2       -0.00002   0.00004  -0.00102   0.00011  -0.00017
 111 6   C  1S         -0.01691   0.38221  -0.38143   0.07748  -0.05977
 112        2S         -0.01379   0.31455  -0.31382   0.06385  -0.04918
 113        2PX        -0.00005   0.00057   0.00017   0.00008   0.00010
 114        2PY        -0.00008   0.00008  -0.00024   0.00001  -0.00004
 115        2PZ         0.00002  -0.00018   0.00027  -0.00006   0.00006
 116        3S         -0.00170   0.01516  -0.01585   0.00239  -0.00266
 117        3PX         0.00049  -0.00315   0.00087  -0.00023  -0.00054
 118        3PY         0.00078  -0.00230   0.00209  -0.00006   0.00010
 119        3PZ        -0.00005  -0.00032   0.00002   0.00001  -0.00006
 120        4S         -0.00018  -0.01672   0.04551  -0.00237   0.02047
 121        4PX         0.00006   0.00331   0.00205  -0.00049  -0.00111
 122        4PY        -0.00099   0.00224  -0.01665   0.00089  -0.00867
 123        4PZ        -0.00041   0.00347  -0.00599   0.00041  -0.00180
 124        5S         -0.01424  -0.00759   0.06096  -0.01510   0.05275
 125        5PX         0.00234   0.00025  -0.00182   0.00201   0.00083
 126        5PY         0.00157   0.00118  -0.01219   0.00224  -0.01008
 127        5PZ         0.00016   0.00066  -0.00194   0.00050  -0.00076
 128        6D 0        0.00000  -0.00067   0.00104  -0.00013   0.00021
 129        6D+1        0.00000  -0.00006  -0.00005  -0.00003   0.00004
 130        6D-1       -0.00002  -0.00003   0.00013   0.00002   0.00003
 131        6D+2       -0.00008   0.00069  -0.00125   0.00006  -0.00009
 132        6D-2       -0.00023   0.00162  -0.00027   0.00017   0.00022
 133 7   H  1S         -0.00010   0.00007  -0.00036   0.00001  -0.00007
 134        2S          0.00017   0.00054   0.00041  -0.00025   0.00049
 135        3S          0.00067   0.00163   0.00187   0.00047   0.00146
 136 8   H  1S         -0.00010   0.00006   0.00036  -0.00002   0.00007
 137        2S          0.00018   0.00054  -0.00043  -0.00021  -0.00050
 138        3S          0.00067   0.00163  -0.00181   0.00065  -0.00145
 139 9   H  1S         -0.00014  -0.00021  -0.00026  -0.00007  -0.00018
 140        2S          0.00003  -0.00035   0.00082  -0.00084   0.00094
 141        3S          0.00122   0.00066   0.00281  -0.00041   0.00266
 142 10  C  1S          0.38216   0.03332   0.01693  -0.12315  -0.10821
 143        2S          0.31465   0.02745   0.01392  -0.10109  -0.08890
 144        2PX         0.00003   0.00003   0.00002   0.00008   0.00009
 145        2PY         0.00000  -0.00005  -0.00003   0.00054   0.00046
 146        2PZ        -0.00032   0.00000   0.00000   0.00012   0.00012
 147        3S          0.01558   0.00086   0.00058  -0.00589  -0.00435
 148        3PX        -0.00001  -0.00015  -0.00009  -0.00028  -0.00040
 149        3PY         0.00179   0.00027   0.00013  -0.00337  -0.00248
 150        3PZ        -0.00003  -0.00007  -0.00005  -0.00006  -0.00012
 151        4S         -0.04479   0.00199  -0.00865   0.01557   0.00891
 152        4PX         0.01230  -0.00092   0.00214   0.00037  -0.00392
 153        4PY        -0.01305   0.00180  -0.00231   0.00606   0.00260
 154        4PZ         0.00465   0.00074   0.00056  -0.00211  -0.00223
 155        5S         -0.02373   0.00030   0.02568   0.03545   0.06840
 156        5PX         0.00933   0.00053   0.00247  -0.00218  -0.00126
 157        5PY        -0.00064   0.00098   0.00550   0.00599   0.01371
 158        5PZ         0.00078  -0.00011   0.00039  -0.00066  -0.00104
 159        6D 0       -0.00035  -0.00014  -0.00013   0.00084   0.00084
 160        6D+1       -0.00012  -0.00001   0.00001  -0.00001  -0.00006
 161        6D-1       -0.00002   0.00003   0.00000  -0.00005  -0.00014
 162        6D+2       -0.00054  -0.00021  -0.00025   0.00169   0.00149
 163        6D-2        0.00017   0.00000   0.00002  -0.00034  -0.00029
 164 11  C  1S         -0.00141  -0.00013   0.00002   0.00053   0.00000
 165        2S         -0.00105  -0.00012   0.00002   0.00051   0.00000
 166        2PX         0.00022   0.00003   0.00000  -0.00002   0.00003
 167        2PY         0.00039   0.00006   0.00000  -0.00004  -0.00002
 168        2PZ         0.00008   0.00000   0.00000  -0.00003   0.00000
 169        3S         -0.00146   0.00024  -0.00004  -0.00084  -0.00001
 170        3PX        -0.00062  -0.00007   0.00010  -0.00030  -0.00056
 171        3PY        -0.00111  -0.00014  -0.00009  -0.00054   0.00030
 172        3PZ        -0.00023  -0.00001   0.00000   0.00009   0.00000
 173        4S          0.03082  -0.00179  -0.00010  -0.00207   0.00000
 174        4PX         0.00938  -0.00082   0.00196  -0.00011  -0.00275
 175        4PY         0.01697  -0.00149  -0.00108  -0.00004   0.00151
 176        4PZ        -0.00468   0.00009  -0.00005  -0.00107  -0.00001
 177        5S          0.00401   0.00778  -0.00113  -0.02573  -0.00014
 178        5PX        -0.00237   0.00056   0.00235  -0.00283  -0.00022
 179        5PY        -0.00461   0.00103  -0.00156  -0.00493   0.00008
 180        5PZ        -0.00093   0.00016  -0.00002  -0.00038   0.00000
 181        6D 0        0.00030   0.00007  -0.00001  -0.00018   0.00000
 182        6D+1       -0.00005   0.00002  -0.00001  -0.00002   0.00005
 183        6D-1       -0.00009   0.00003   0.00001  -0.00003  -0.00003
 184        6D+2       -0.00028   0.00002   0.00000  -0.00035  -0.00010
 185        6D-2        0.00041  -0.00003   0.00003   0.00054  -0.00006
 186 12  O  1S          0.00001   0.00000   0.00000   0.00000   0.00000
 187        2S          0.00005   0.00000   0.00000   0.00003   0.00000
 188        2PX         0.00004   0.00000   0.00000   0.00003   0.00001
 189        2PY         0.00008   0.00000   0.00001   0.00006   0.00000
 190        2PZ         0.00000  -0.00001   0.00000   0.00002   0.00000
 191        3S         -0.00034   0.00006  -0.00001  -0.00017   0.00000
 192        3PX        -0.00025  -0.00001   0.00002  -0.00019  -0.00003
 193        3PY        -0.00045  -0.00001  -0.00003  -0.00034   0.00001
 194        3PZ        -0.00002   0.00003   0.00000  -0.00006   0.00000
 195        4S          0.00106  -0.00058  -0.00003  -0.00056   0.00000
 196        4PX        -0.00007  -0.00006  -0.00028   0.00011   0.00042
 197        4PY        -0.00010  -0.00011   0.00016   0.00018  -0.00023
 198        4PZ         0.00045  -0.00009   0.00001   0.00030   0.00000
 199        5S          0.01189   0.00038   0.00013   0.00297   0.00002
 200        5PX         0.00255   0.00006  -0.00019   0.00048  -0.00009
 201        5PY         0.00469   0.00011   0.00015   0.00085   0.00006
 202        5PZ        -0.00053  -0.00064  -0.00001  -0.00011   0.00000
 203        6D 0        0.00004   0.00000   0.00000   0.00005   0.00000
 204        6D+1        0.00001   0.00000   0.00000  -0.00001   0.00000
 205        6D-1        0.00002   0.00001   0.00000  -0.00001   0.00000
 206        6D+2        0.00010   0.00000  -0.00002   0.00006   0.00004
 207        6D-2       -0.00016   0.00000  -0.00002  -0.00009   0.00003
 208 13  C  1S          0.37120   0.03350  -0.02774  -0.12255   0.10709
 209        2S          0.30563   0.02760  -0.02280  -0.10060   0.08799
 210        2PX        -0.00001  -0.00006   0.00007   0.00041  -0.00034
 211        2PY         0.00002  -0.00001   0.00003   0.00037  -0.00032
 212        2PZ        -0.00031   0.00000   0.00001   0.00012  -0.00012
 213        3S          0.01512   0.00087  -0.00110  -0.00587   0.00429
 214        3PX         0.00142   0.00031  -0.00040  -0.00268   0.00184
 215        3PY         0.00094   0.00002  -0.00018  -0.00207   0.00166
 216        3PZ        -0.00002  -0.00007   0.00004  -0.00006   0.00012
 217        4S         -0.04395   0.00196   0.01001   0.01486  -0.00877
 218        4PX        -0.01746   0.00200   0.00353   0.00465  -0.00427
 219        4PY         0.00326   0.00021  -0.00022   0.00361   0.00193
 220        4PZ         0.00453   0.00075  -0.00074  -0.00208   0.00221
 221        5S         -0.02378   0.00034  -0.02242   0.03830  -0.06801
 222        5PX        -0.00560   0.00054  -0.00271   0.00661  -0.01214
 223        5PY         0.00723   0.00099  -0.00490   0.00192  -0.00635
 224        5PZ         0.00078  -0.00011  -0.00045  -0.00063   0.00104
 225        6D 0       -0.00034  -0.00014   0.00020   0.00083  -0.00083
 226        6D+1        0.00005   0.00003   0.00000  -0.00004   0.00008
 227        6D-1       -0.00011   0.00001  -0.00001  -0.00004   0.00012
 228        6D+2        0.00007   0.00009  -0.00012  -0.00038   0.00035
 229        6D-2        0.00055   0.00019  -0.00038  -0.00167   0.00146
 230 14  H  1S          0.00011  -0.00002  -0.00005  -0.00011   0.00009
 231        2S         -0.00103   0.00026   0.00018  -0.00050  -0.00025
 232        3S         -0.00239   0.00076   0.00058   0.00047  -0.00071
 233 15  H  1S          0.00011  -0.00002   0.00003  -0.00011  -0.00010
 234        2S         -0.00100   0.00026  -0.00022  -0.00049   0.00024
 235        3S         -0.00237   0.00076  -0.00053   0.00052   0.00071
 236 16  H  1S         -0.00014  -0.00021   0.00026  -0.00009   0.00018
 237        2S          0.00003  -0.00034  -0.00089  -0.00075  -0.00095
 238        3S          0.00118   0.00067  -0.00283  -0.00013  -0.00266
 239 17  H  1S         -0.00028   0.00029  -0.00019  -0.00061   0.00026
 240        2S          0.00153  -0.00198   0.00111   0.00354  -0.00483
 241        3S          0.00061  -0.00021   0.00218   0.00585  -0.01116
 242 18  H  1S         -0.00029   0.00028   0.00013  -0.00062  -0.00027
 243        2S          0.00164  -0.00197  -0.00080   0.00358   0.00487
 244        3S          0.00071  -0.00020  -0.00167   0.00590   0.01123
 245 19  H  1S          0.00011   0.00006   0.00008   0.00002   0.00012
 246        2S         -0.00115  -0.00067   0.00053  -0.00091   0.00077
 247        3S         -0.00052  -0.00206   0.00256  -0.00305   0.00505
 248 20  H  1S          0.00011   0.00006  -0.00008   0.00003  -0.00012
 249        2S         -0.00118  -0.00067  -0.00061  -0.00085  -0.00078
 250        3S         -0.00059  -0.00205  -0.00282  -0.00276  -0.00508
 251 21  H  1S          0.00012  -0.00057  -0.00027   0.00003   0.00002
 252        2S         -0.00096   0.00307   0.00339  -0.00049   0.00064
 253        3S          0.00010   0.00389   0.00797   0.00066   0.00238
 254 22  H  1S          0.00012  -0.00057   0.00027   0.00001  -0.00002
 255        2S         -0.00096   0.00308  -0.00341  -0.00018  -0.00065
 256        3S          0.00009   0.00391  -0.00787   0.00138  -0.00237
 257 23  H  1S         -0.00037  -0.00007  -0.00002   0.00008  -0.00003
 258        2S          0.00337   0.00024   0.00010  -0.00132  -0.00026
 259        3S          0.00538   0.00067   0.00107  -0.00318  -0.00385
 260 24  H  1S         -0.00020  -0.00001   0.00001   0.00023   0.00000
 261        2S         -0.00181   0.00010  -0.00006  -0.00134  -0.00001
 262        3S         -0.00566   0.00004   0.00001   0.00016   0.00000
 263 25  H  1S         -0.00036  -0.00007   0.00002   0.00007   0.00003
 264        2S          0.00324   0.00024  -0.00022  -0.00131   0.00025
 265        3S          0.00525   0.00067  -0.00135  -0.00312   0.00382
 266 26  H  1S          0.00008   0.00001   0.00000  -0.00004   0.00000
 267        2S         -0.00016  -0.00008   0.00002   0.00039   0.00000
 268        3S         -0.00049  -0.00111  -0.00005  -0.00112  -0.00001
                          11        12        13        14        15
                           O         O         O         O         O
     Eigenvalues --    -1.14636  -0.94436  -0.87783  -0.84906  -0.77680
   1 1   C  1S         -0.00032  -0.03508   0.03532   0.05447   0.03752
[...]
    45  Bq   0.000000
    46  Bq   0.000000
    47  Bq   0.000000
    48  Bq   0.000000
    49  Bq   0.000000
    50  Bq   0.000000
    51  Bq   0.000000
    52  Bq   0.000000
    53  Bq   0.000000
    54  Bq   0.000000
    55  Bq   0.000000
    56  Bq   0.000000
    57  Bq   0.000000
    58  Bq   0.000000
    59  Bq   0.000000
    60  Bq   0.000000
    61  Bq   0.000000
    62  Bq   0.000000
    63  Bq   0.000000
    64  Bq   0.000000
    65  Bq   0.000000
    66  Bq   0.000000
 Electronic spatial extent (au):  <R**2>=           2042.4871
 Charge=              0.0000 electrons
 Dipole moment (field-independent basis, Debye):
    X=              0.4143    Y=              0.7603    Z=             -5.4047  Tot=              5.4736
 Quadrupole moment (field-independent basis, Debye-Ang):
   XX=            -66.8487   YY=            -71.0988   ZZ=            -61.1819
   XY=             -3.2945   XZ=              5.1295   YZ=              9.4125
 Traceless Quadrupole moment (field-independent basis, Debye-Ang):
   XX=             -0.4722   YY=             -4.7223   ZZ=              5.1946
   XY=             -3.2945   XZ=              5.1295   YZ=              9.4125
 Octapole moment (field-independent basis, Debye-Ang**2):
  XXX=            121.5023  YYY=            246.0101  ZZZ=             14.9396  XYY=             56.6016
  XXY=             80.8112  XXZ=            -13.9953  XZZ=             32.5839  YZZ=             59.7913
  YYZ=            -38.5658  XYZ=            -19.0464
 Hexadecapole moment (field-independent basis, Debye-Ang**3):
 XXXX=           -909.6637 YYYY=          -1902.2063 ZZZZ=           -103.3637 XXXY=           -352.1709
 XXXZ=             24.3312 YYYX=           -417.2148 YYYZ=            142.1847 ZZZX=             -6.5399
 ZZZY=            -12.0011 XXYY=           -488.2727 XXZZ=           -161.9767 YYZZ=           -272.3308
 XXYZ=             42.3513 YYXZ=             76.2339 ZZXY=            -85.5430
 N-N= 6.124368515709D+02 E-N=-2.221505378324D+03  KE= 4.311862108661D+02
 Orbital energies and kinetic energies (alpha):
                                 1                 2
   1         O               -19.124077         29.119670
   2         O               -10.198021         15.944951
   3         O               -10.135854         15.940376
   4         O               -10.135840         15.943260
   5         O               -10.135250         15.940633
   6         O               -10.135248         15.942212
   7         O               -10.134382         15.942610
   8         O               -10.134074         15.944754
   9         O               -10.134071         15.941883
  10         O               -10.133855         15.943478
  11         O                -1.146355          2.500167
  12         O                -0.944364          1.327134
  13         O                -0.877828          1.400371
  14         O                -0.849057          1.428032
  15         O                -0.776801          1.500318
  16         O                -0.744095          1.532077
  17         O                -0.642978          1.612583
  18         O                -0.625687          1.440354
  19         O                -0.615627          1.609825
  20         O                -0.586881          1.430249
  21         O                -0.548712          1.236793
  22         O                -0.528494          1.073116
  23         O                -0.516520          1.434247
  24         O                -0.483502          1.306232
  25         O                -0.458189          1.112581
  26         O                -0.457329          1.282735
  27         O                -0.444909          1.430126
  28         O                -0.425064          1.418276
  29         O                -0.416670          1.785876
  30         O                -0.398773          1.345120
  31         O                -0.389214          1.281330
  32         O                -0.374530          1.408305
  33         O                -0.340344          1.474251
  34         O                -0.327407          1.422559
  35         O                -0.281652          2.087164
  36         O                -0.250860          1.471961
  37         O                -0.236295          1.401651
  38         O                -0.206064          1.678023
  39         O                -0.151757          1.557818
  40         V                -0.059222          0.525743
  41         V                -0.021776          0.520831
  42         V                 0.006026          0.296924
  43         V                 0.011769          0.358125
  44         V                 0.026266          0.336532
  45         V                 0.034906          0.277184
  46         V                 0.035822          0.359459
  47         V                 0.042311          0.238286
  48         V                 0.047001          0.343353
  49         V                 0.055277          0.365756
  50         V                 0.063600          0.322623
  51         V                 0.073178          0.307397
  52         V                 0.080188          0.322419
  53         V                 0.081851          0.349206
  54         V                 0.087467          0.281347
  55         V                 0.099763          0.360720
  56         V                 0.103171          0.301285
  57         V                 0.106243          0.302014
  58         V                 0.120578          0.386437
  59         V                 0.136439          0.493594
  60         V                 0.136566          0.381370
  61         V                 0.137399          0.346542
  62         V                 0.148150          0.582827
  63         V                 0.150007          0.500356
  64         V                 0.152190          0.549682
  65         V                 0.161786          0.719001
  66         V                 0.166430          0.599321
  67         V                 0.172918          0.708706
  68         V                 0.180447          0.597598
  69         V                 0.181458          0.854077
  70         V                 0.188273          0.596376
  71         V                 0.195885          0.593579
  72         V                 0.199171          0.652669
  73         V                 0.204459          0.736339
  74         V                 0.208270          0.558116
  75         V                 0.209753          1.071069
  76         V                 0.214416          0.578065
  77         V                 0.216575          0.745517
  78         V                 0.233042          0.657686
  79         V                 0.233820          0.721172
  80         V                 0.238156          0.561392
  81         V                 0.241540          1.130115
  82         V                 0.249281          0.777230
  83         V                 0.253961          0.951737
  84         V                 0.261166          1.279252
  85         V                 0.264294          0.946068
  86         V                 0.275605          0.512218
  87         V                 0.281864          0.731028
  88         V                 0.296198          0.709945
  89         V                 0.299701          1.155426
  90         V                 0.306699          0.797203
  91         V                 0.308309          0.787558
  92         V                 0.316014          0.913626
  93         V                 0.326914          0.939871
  94         V                 0.336117          0.955714
  95         V                 0.338857          0.835121
  96         V                 0.352789          1.026553
  97         V                 0.355684          0.867260
  98         V                 0.359393          0.895748
  99         V                 0.369126          1.310081
 100         V                 0.374257          1.111609
 101         V                 0.403609          1.201296
 102         V                 0.404376          1.302478
 103         V                 0.422553          1.182651
 104         V                 0.426984          1.740511
 105         V                 0.442452          1.149391
 106         V                 0.459129          1.111723
 107         V                 0.465862          1.446356
 108         V                 0.485562          1.212564
 109         V                 0.494532          1.260793
 110         V                 0.509807          1.350292
 111         V                 0.517107          1.329428
 112         V                 0.538024          1.274219
 113         V                 0.558897          1.540823
 114         V                 0.570221          1.760441
 115         V                 0.602443          1.594067
 116         V                 0.616589          1.523423
 117         V                 0.658735          2.106086
 118         V                 0.664008          1.996547
 119         V                 0.668348          1.840678
 120         V                 0.669856          1.704859
 121         V                 0.674345          1.913770
 122         V                 0.687784          1.720258
 123         V                 0.688811          1.817313
 124         V                 0.706559          2.059088
 125         V                 0.721578          2.173642
 126         V                 0.729466          1.910224
 127         V                 0.741008          1.955958
 128         V                 0.753206          1.951588
 129         V                 0.762868          2.110562
 130         V                 0.771879          2.141248
 131         V                 0.779910          2.048541
 132         V                 0.780837          2.601823
 133         V                 0.802515          1.992825
 134         V                 0.812612          2.254482
 135         V                 0.821189          2.070115
 136         V                 0.822058          1.734576
 137         V                 0.839224          1.963079
 138         V                 0.840957          2.312113
 139         V                 0.857063          2.055567
 140         V                 0.876271          1.866497
 141         V                 0.877583          2.889758
 142         V                 0.884619          2.481017
 143         V                 0.901442          2.449517
 144         V                 0.905801          1.987986
 145         V                 0.931058          1.801158
 146         V                 0.962926          1.961475
 147         V                 0.981439          1.626331
 148         V                 0.995926          2.111033
 149         V                 1.008121          2.062245
 150         V                 1.019562          2.203380
 151         V                 1.044550          1.805460
 152         V                 1.068785          2.413000
 153         V                 1.093495          2.035956
 154         V                 1.103694          2.190126
 155         V                 1.130549          2.507325
 156         V                 1.130725          2.069727
 157         V                 1.152161          2.436152
 158         V                 1.157370          2.212028
 159         V                 1.179172          2.432938
 160         V                 1.192654          2.357517
 161         V                 1.226216          2.558888
 162         V                 1.234441          2.428674
 163         V                 1.260346          2.503418
 164         V                 1.286466          2.401572
 165         V                 1.324900          2.523403
 166         V                 1.330181          2.397099
 167         V                 1.350003          2.632041
 168         V                 1.389329          2.652804
 169         V                 1.391018          2.580507
 170         V                 1.484876          2.595015
 171         V                 1.496401          2.563548
 172         V                 1.570963          2.726776
 173         V                 1.572990          2.740878
 174         V                 1.586971          2.695916
 175         V                 1.590722          2.710884
 176         V                 1.613179          2.730330
 177         V                 1.637622          2.895491
 178         V                 1.660386          2.919208
 179         V                 1.711910          3.095991
 180         V                 1.718542          3.272179
 181         V                 1.726037          2.862501
 182         V                 1.744640          2.998384
 183         V                 1.787414          3.076191
 184         V                 1.807395          3.189890
 185         V                 1.824656          3.388100
 186         V                 1.859807          3.638107
 187         V                 1.872210          3.139883
 188         V                 1.900156          3.265622
 189         V                 1.925131          3.319813
 190         V                 1.939321          3.311764
 191         V                 1.950017          3.304179
 192         V                 1.996762          3.638409
 193         V                 2.015583          3.552279
 194         V                 2.051063          3.783089
 195         V                 2.064305          3.687838
 196         V                 2.109484          4.065132
 197         V                 2.165469          3.972727
 198         V                 2.169662          3.639182
 199         V                 2.229171          4.275750
 200         V                 2.278448          3.436979
 201         V                 2.311911          4.100724
 202         V                 2.327625          4.193211
 203         V                 2.343537          4.191976
 204         V                 2.368059          4.366403
 205         V                 2.379304          4.520388
 206         V                 2.461250          4.471770
 207         V                 2.492264          4.649260
 208         V                 2.515745          4.832410
 209         V                 2.582172          5.004869
 210         V                 2.613965          5.012508
 211         V                 2.650276          4.845527
 212         V                 2.682467          5.239898
 213         V                 2.688337          5.327245
 214         V                 2.718844          5.244922
 215         V                 2.746342          5.395653
 216         V                 2.794456          4.716657
 217         V                 2.802541          5.721263
 218         V                 2.838107          5.573970
 219         V                 2.853542          5.467285
 220         V                 2.892142          5.444228
 221         V                 2.901285          5.817542
 222         V                 2.913073          5.347540
 223         V                 3.047524          5.634877
 224         V                 3.060778          6.224498
 225         V                 3.088027          6.612942
 226         V                 3.097832          5.908700
 227         V                 3.130634          5.807455
 228         V                 3.183067          6.698155
 229         V                 3.225641          6.181669
 230         V                 3.245720          6.391467
 231         V                 3.271564          6.116090
 232         V                 3.291162          7.037337
 233         V                 3.322957          6.239478
 234         V                 3.382731          6.489152
 235         V                 3.382815          6.760250
 236         V                 3.411288          6.646719
 237         V                 3.474005          6.118757
 238         V                 3.483096          6.070364
 239         V                 3.534258          5.586877
 240         V                 3.598301          7.060989
 241         V                 3.643541          6.398086
 242         V                 3.652095          6.845277
 243         V                 3.692664          7.122338
 244         V                 3.707874          6.717109
 245         V                 3.794237          7.153656
 246         V                 3.803929          6.799906
 247         V                 3.878839          7.379855
 248         V                 3.947409          6.700845
 249         V                 4.021381          7.424261
 250         V                 4.047230          7.306468
 251         V                 4.168740          7.126477
 252         V                 4.222739          7.544498
 253         V                 4.550130          7.684538
 254         V                 4.703884          7.901304
 255         V                 5.169485         11.886045
 256         V                 5.183354         11.950281
 257         V                 5.714989         12.245073
 258         V                23.410809         60.146313
 259         V                23.871051         60.308071
 260         V                23.873357         60.299207
 261         V                23.940175         60.327861
 262         V                23.993002         60.358776
 263         V                24.227597         60.464820
 264         V                24.230347         60.447579
 265         V                24.257682         60.468067
 266         V                24.332869         60.544102
 267         V                50.051747        123.677383
 Total kinetic energy from orbitals= 4.311862108661D+02
 1\1\GINC-HOGWARTS\SP\RB3LYP\6-311+G(d)\C9H16O1\ANUJA\11-Nov-2014\0\\# 
 B3LYP/6-311+G* NMR=GIAO INTEGRAL=(GRID=ULTRAFINE) CPHF=(GRID=FINE) POP
 =FULL SCF(MAXCYCLE=512)\\---------------------------------------------
 ------------- # Center 1\\0,1\C,0,-1.25241,0.72951,0.\C,0,-1.25241,-0.
 7156,0.\C,0,0.0775,-1.44035,0.\C,0,1.2919,-0.65704,0.\C,0,1.20948,0.69
 2,0.\C,0,-0.07407,1.39148,0.\H,0,-0.06085,2.47666,0.\H,0,2.11425,1.291
 32,0.\H,0,2.25273,-1.16122,0.\C,0,-0.13612,-2.7719,0.\C,0,-1.62766,-2.
 98676,0.\O,0,-2.20659,-4.0491,0.\C,0,-2.25559,-1.61688,0.\H,0,-3.32318
 ,-1.44812,0.\H,0,0.58438,-3.57758,0.\H,0,-2.19691,1.26365,0.\H,0,-1.32
 894,-0.6739,-0.9962\H,0,0.15403,-1.48206,-0.99619\H,0,-1.32772,0.77338
 ,-0.9962\H,0,1.36959,-0.69655,-0.9962\H,0,1.28513,0.73528,-0.9962\H,0,
 -0.0787,1.47852,-0.9962\H,0,-0.07321,-2.83222,-0.99619\H,0,-1.66937,-3
 .06329,-0.99619\H,0,-2.34038,-1.59671,-0.99619\H,0,-2.24663,-4.12257,-
 0.95635\Bq,0,0.,0.,0.\Bq,0,0.,0.,0.1\Bq,0,0.,0.,0.2\Bq,0,0.,0.,0.3\Bq,
 0,0.,0.,0.4\Bq,0,0.,0.,0.5\Bq,0,0.,0.,0.6\Bq,0,0.,0.,0.7\Bq,0,0.,0.,0.
 8\Bq,0,0.,0.,0.9\Bq,0,0.,0.,1.\Bq,0,0.,0.,1.1\Bq,0,0.,0.,1.2\Bq,0,0.,0
 .,1.3\Bq,0,0.,0.,1.4\Bq,0,0.,0.,1.5\Bq,0,0.,0.,1.6\Bq,0,0.,0.,1.7\Bq,0
 ,0.,0.,1.8\Bq,0,0.,0.,1.9\Bq,0,0.,0.,2.\Bq,0,0.,0.,2.1\Bq,0,0.,0.,2.2\
 Bq,0,0.,0.,2.3\Bq,0,0.,0.,2.4\Bq,0,0.,0.,2.5\Bq,0,0.,0.,2.6\Bq,0,0.,0.
 ,2.7\Bq,0,0.,0.,2.8\Bq,0,0.,0.,2.9\Bq,0,0.,0.,3.\Bq,0,0.,0.,3.1\Bq,0,0
 .,0.,3.2\Bq,0,0.,0.,3.3\Bq,0,0.,0.,3.4\Bq,0,0.,0.,3.5\Bq,0,0.,0.,3.6\B
 q,0,0.,0.,3.7\Bq,0,0.,0.,3.8\Bq,0,0.,0.,3.9\\Version=EM64L-G09RevD.01\
 HF=-426.9705383\RMSD=8.651e-09\Dipole=0.1630036,0.2991281,-2.1263673\Q
 uadrupole=-0.3511007,-3.5109203,3.862021,-2.4493845,3.8136371,6.997953
 5\PG=C01 [X(C9H16O1)]\\@


 AND HERE I AM, FOR ALL MY LORE,
 THE WRETCHED FOOL I WAS BEFORE.
 CALLED MASTER OF ARTS, AND DOCTOR TO BOOT,
 FOR TEN YEARS ALMOST I CONFUTE
 AND UP AND DOWN, WHEREVER IT GOES
 I DRAG MY STUDENTS BY THE NOSE --
 AND SEE THAT FOR ALL OUR SCIENCE AND ART
 WE CAN KNOW NOTHING.  IT BURNS MY HEART.

                                       -- FAUST
 Job cpu time:       0 days  0 hours 18 minutes  3.5 seconds.
 File lengths (MBytes):  RWF=     32 Int=      0 D2E=      0 Chk=      5 Scr=      1
 Normal termination of Gaussian 09 at Tue Nov 11 01:19:57 2014.
