 Entering Gaussian System, Link 0=/usr/local/g09/g09
 Input=/home/anuja/input/indene-sigma-center2.in
 Output=/home/anuja/output/indene-sigma-center2.log
 Initial command:
 /usr/local/g09-D.01/g09/l1.exe /gtmp/Gau-6178.inp -scrdir=/gtmp/
 Entering Link 1 = /usr/local/g09-D.01/g09/l1.exe PID=      6180.
  
 Copyright (c) 1988,1990,1992,1993,1995,1998,2003,2009,2013,
            Gaussian, Inc.  All Rights Reserved.
  
 This is part of the Gaussian(R) 09 program.  It is based on
 the Gaussian(R) 03 system (copyright 2003, Gaussian, Inc.),
 the Gaussian(R) 98 system (copyright 1998, Gaussian, Inc.),
 the Gaussian(R) 94 system (copyright 1995, Gaussian, Inc.),
 the Gaussian 92(TM) system (copyright 1992, Gaussian, Inc.),
 the Gaussian 90(TM) system (copyright 1990, Gaussian, Inc.),
 the Gaussian 88(TM) system (copyright 1988, Gaussian, Inc.),
 the Gaussian 86(TM) system (copyright 1986, Carnegie Mellon
 University), and the Gaussian 82(TM) system (copyright 1983,
 Carnegie Mellon University). Gaussian is a federally registered
 trademark of Gaussian, Inc.
  
 This software contains proprietary and confidential information,
 including trade secrets, belonging to Gaussian, Inc.
  
 This software is provided under written license and may be
 used, copied, transmitted, or stored only in accord with that
 written license.
  
 The following legend is applicable only to US Government
 contracts under FAR:
  
                    RESTRICTED RIGHTS LEGEND
  
 Use, reproduction and disclosure by the US Government is
 subject to restrictions as set forth in subparagraphs (a)
 and (c) of the Commercial Computer Software - Restricted
 Rights clause in FAR 52.227-19.
  
 Gaussian, Inc.
 340 Quinnipiac St., Bldg. 40, Wallingford CT 06492
  
  
 ---------------------------------------------------------------
 Warning -- This program may not be used in any manner that
 competes with the business of Gaussian, Inc. or will provide
 assistance to any competitor of Gaussian, Inc.  The licensee
 of this program is prohibited from giving any competitor of
 Gaussian, Inc. access to this program.  By using this program,
 the user acknowledges that Gaussian, Inc. is engaged in the
 business of creating and licensing software in the field of
 computational chemistry and represents and warrants to the
 licensee that it is not a competitor of Gaussian, Inc. and that
 it will not use this program in any manner prohibited above.
 ---------------------------------------------------------------
  

 Cite this work as:
 Gaussian 09, Revision D.01,
 M. J. Frisch, G. W. Trucks, H. B. Schlegel, G. E. Scuseria, 
 M. A. Robb, J. R. Cheeseman, G. Scalmani, V. Barone, B. Mennucci, 
 G. A. Petersson, H. Nakatsuji, M. Caricato, X. Li, H. P. Hratchian, 
 A. F. Izmaylov, J. Bloino, G. Zheng, J. L. Sonnenberg, M. Hada, 
 M. Ehara, K. Toyota, R. Fukuda, J. Hasegawa, M. Ishida, T. Nakajima, 
 Y. Honda, O. Kitao, H. Nakai, T. Vreven, J. A. Montgomery, Jr., 
 J. E. Peralta, F. Ogliaro, M. Bearpark, J. J. Heyd, E. Brothers, 
 K. N. Kudin, V. N. Staroverov, T. Keith, R. Kobayashi, J. Normand, 
 K. Raghavachari, A. Rendell, J. C. Burant, S. S. Iyengar, J. Tomasi, 
 M. Cossi, N. Rega, J. M. Millam, M. Klene, J. E. Knox, J. B. Cross, 
 V. Bakken, C. Adamo, J. Jaramillo, R. Gomperts, R. E. Stratmann, 
 O. Yazyev, A. J. Austin, R. Cammi, C. Pomelli, J. W. Ochterski, 
 R. L. Martin, K. Morokuma, V. G. Zakrzewski, G. A. Voth, 
 P. Salvador, J. J. Dannenberg, S. Dapprich, A. D. Daniels, 
 O. Farkas, J. B. Foresman, J. V. Ortiz, J. Cioslowski, 
 and D. J. Fox, Gaussian, Inc., Wallingford CT, 2013.
 
 ******************************************
 Gaussian 09:  EM64L-G09RevD.01 24-Apr-2013
                11-Nov-2014 
 ******************************************
 %NPROC=6
 Will use up to    6 processors via shared memory.
 %MEM=6024MB
 ----------------------------------------------------------------------
 # B3LYP/6-311+G* NMR=GIAO INTEGRAL=(GRID=ULTRAFINE) CPHF=(GRID=FINE) P
 OP=FULL SCF(MAXCYCLE=512)
 ----------------------------------------------------------------------
 1/38=1/1;
 2/12=2,17=6,18=5,40=1/2;
 3/5=4,6=6,7=11,11=2,16=1,25=1,30=1,74=-5,75=-5/1,2,8,3;
 4//1;
 5/5=2,7=512,38=5,96=4/2;
 8/6=1,10=90,11=11/1;
 10/13=100,45=16,60=4/2;
 6/7=3,28=1/1;
 99/9=1/99;
 ---------------------------------------------------------------------
 ---------------------------------------------------------- # Center 2
 ---------------------------------------------------------------------
 Symbolic Z-matrix:
 Charge =  0 Multiplicity = 1
 6                    -0.21356  -2.63581   0. 
 6                    -0.21356  -1.1907    0. 
 6                     1.11636  -0.46595   0. 
 6                     2.33076  -1.24926   0. 
 6                     2.24833  -2.5983    0. 
 6                     0.96479  -3.29778   0. 
 1                     0.978    -4.38296   0. 
 1                     3.1531   -3.19762   0. 
 1                     3.29158  -0.74508   0. 
 6                     0.90274   0.8656    0. 
 6                    -0.58881   1.08046   0. 
 8                    -1.16774   2.1428    0. 
 6                    -1.21673  -0.28942   0. 
 1                    -2.28433  -0.45818   0. 
 1                     1.62324   1.67128   0. 
 1                    -1.15805  -3.16995   0. 
 1                    -0.29009  -1.2324    0.99619 
 1                     1.19289  -0.42424   0.9962 
 1                    -0.28887  -2.67968   0.99619 
 1                     2.40845  -1.20975   0.99619 
 1                     2.32398  -2.64158   0.99619 
 1                     0.96016  -3.38482   0.99619 
 1                     0.96565   0.92592   0.9962 
 1                    -0.63051   1.15699   0.9962 
 1                    -1.30152  -0.30959   0.9962 
 1                    -1.20777   2.21627   0.95635 
 bq                    0.        0.        0. 
 bq                    0.        0.       -0.1 
 bq                    0.        0.       -0.2 
 bq                    0.        0.       -0.3 
 bq                    0.        0.       -0.4 
 bq                    0.        0.       -0.5 
 bq                    0.        0.       -0.6 
 bq                    0.        0.       -0.7 
 bq                    0.        0.       -0.8 
 bq                    0.        0.       -0.9 
 bq                    0.        0.       -1. 
 bq                    0.        0.       -1.1 
 bq                    0.        0.       -1.2 
 bq                    0.        0.       -1.3 
 bq                    0.        0.       -1.4 
 bq                    0.        0.       -1.5 
 bq                    0.        0.       -1.6 
 bq                    0.        0.       -1.7 
 bq                    0.        0.       -1.8 
 bq                    0.        0.       -1.9 
 bq                    0.        0.       -2. 
 bq                    0.        0.       -2.1 
 bq                    0.        0.       -2.2 
 bq                    0.        0.       -2.3 
 bq                    0.        0.       -2.4 
 bq                    0.        0.       -2.5 
 bq                    0.        0.       -2.6 
 bq                    0.        0.       -2.7 
 bq                    0.        0.       -2.8 
 bq                    0.        0.       -2.9 
 bq                    0.        0.       -3. 
 bq                    0.        0.       -3.1 
 bq                    0.        0.       -3.2 
 bq                    0.        0.       -3.3 
 bq                    0.        0.       -3.4 
 bq                    0.        0.       -3.5 
 bq                    0.        0.       -3.6 
 bq                    0.        0.       -3.7 
 bq                    0.        0.       -3.8 
 bq                    0.        0.       -3.9 
 
 Symmetry turned off:
 Cannot cope with ghost atoms or with translation vectors.
 Stoichiometry    C9H16O
 Framework group  C1[X(C9H16O)]
 NUMDOF-- NAT=    26 NAtoms=    66
 Deg. of freedom     0
 Full point group                 C1      NOp   1
                          Input orientation:                          
 ---------------------------------------------------------------------
 Center     Atomic      Atomic             Coordinates (Angstroms)
 Number     Number       Type             X           Y           Z
 ---------------------------------------------------------------------
      1          6           0       -0.213560   -2.635810    0.000000
      2          6           0       -0.213560   -1.190700    0.000000
      3          6           0        1.116360   -0.465950    0.000000
      4          6           0        2.330760   -1.249260    0.000000
      5          6           0        2.248330   -2.598300    0.000000
      6          6           0        0.964790   -3.297780    0.000000
      7          1           0        0.978000   -4.382960    0.000000
      8          1           0        3.153100   -3.197620    0.000000
      9          1           0        3.291580   -0.745080    0.000000
     10          6           0        0.902740    0.865600    0.000000
     11          6           0       -0.588810    1.080460    0.000000
     12          8           0       -1.167740    2.142800    0.000000
     13          6           0       -1.216730   -0.289420    0.000000
     14          1           0       -2.284330   -0.458180    0.000000
     15          1           0        1.623240    1.671280    0.000000
     16          1           0       -1.158050   -3.169950    0.000000
     17          1           0       -0.290090   -1.232400    0.996190
     18          1           0        1.192890   -0.424240    0.996200
     19          1           0       -0.288870   -2.679680    0.996190
     20          1           0        2.408450   -1.209750    0.996190
     21          1           0        2.323980   -2.641580    0.996190
     22          1           0        0.960160   -3.384820    0.996190
     23          1           0        0.965650    0.925920    0.996200
     24          1           0       -0.630510    1.156990    0.996200
     25          1           0       -1.301520   -0.309590    0.996200
     26          1           0       -1.207770    2.216270    0.956350
     27          0           0        0.000000    0.000000    0.000000
     28          0           0        0.000000    0.000000   -0.100000
     29          0           0        0.000000    0.000000   -0.200000
     30          0           0        0.000000    0.000000   -0.300000
     31          0           0        0.000000    0.000000   -0.400000
     32          0           0        0.000000    0.000000   -0.500000
     33          0           0        0.000000    0.000000   -0.600000
     34          0           0        0.000000    0.000000   -0.700000
     35          0           0        0.000000    0.000000   -0.800000
     36          0           0        0.000000    0.000000   -0.900000
     37          0           0        0.000000    0.000000   -1.000000
     38          0           0        0.000000    0.000000   -1.100000
     39          0           0        0.000000    0.000000   -1.200000
     40          0           0        0.000000    0.000000   -1.300000
     41          0           0        0.000000    0.000000   -1.400000
     42          0           0        0.000000    0.000000   -1.500000
     43          0           0        0.000000    0.000000   -1.600000
     44          0           0        0.000000    0.000000   -1.700000
     45          0           0        0.000000    0.000000   -1.800000
     46          0           0        0.000000    0.000000   -1.900000
     47          0           0        0.000000    0.000000   -2.000000
     48          0           0        0.000000    0.000000   -2.100000
     49          0           0        0.000000    0.000000   -2.200000
     50          0           0        0.000000    0.000000   -2.300000
     51          0           0        0.000000    0.000000   -2.400000
     52          0           0        0.000000    0.000000   -2.500000
     53          0           0        0.000000    0.000000   -2.600000
     54          0           0        0.000000    0.000000   -2.700000
     55          0           0        0.000000    0.000000   -2.800000
     56          0           0        0.000000    0.000000   -2.900000
     57          0           0        0.000000    0.000000   -3.000000
     58          0           0        0.000000    0.000000   -3.100000
     59          0           0        0.000000    0.000000   -3.200000
     60          0           0        0.000000    0.000000   -3.300000
     61          0           0        0.000000    0.000000   -3.400000
     62          0           0        0.000000    0.000000   -3.500000
     63          0           0        0.000000    0.000000   -3.600000
     64          0           0        0.000000    0.000000   -3.700000
     65          0           0        0.000000    0.000000   -3.800000
     66          0           0        0.000000    0.000000   -3.900000
 ---------------------------------------------------------------------
 Rotational constants (GHZ):      3.2005071      0.9494077      0.7522787
 Standard basis: 6-311+G(d) (5D, 7F)
 Warning:  center  27 has no basis functions!
 Warning:  center  28 has no basis functions!
 Warning:  center  29 has no basis functions!
 Warning:  center  30 has no basis functions!
 Warning:  center  31 has no basis functions!
 Warning:  center  32 has no basis functions!
 Warning:  center  33 has no basis functions!
 Warning:  center  34 has no basis functions!
 Warning:  center  35 has no basis functions!
 Warning:  center  36 has no basis functions!
 Warning:  center  37 has no basis functions!
 Warning:  center  38 has no basis functions!
 Warning:  center  39 has no basis functions!
 Warning:  center  40 has no basis functions!
 Warning:  center  41 has no basis functions!
 Warning:  center  42 has no basis functions!
 Warning:  center  43 has no basis functions!
 Warning:  center  44 has no basis functions!
 Warning:  center  45 has no basis functions!
 Warning:  center  46 has no basis functions!
 Warning:  center  47 has no basis functions!
 Warning:  center  48 has no basis functions!
 Warning:  center  49 has no basis functions!
 Warning:  center  50 has no basis functions!
 Warning:  center  51 has no basis functions!
 Warning:  center  52 has no basis functions!
 Warning:  center  53 has no basis functions!
 Warning:  center  54 has no basis functions!
 Warning:  center  55 has no basis functions!
 Warning:  center  56 has no basis functions!
 Warning:  center  57 has no basis functions!
 Warning:  center  58 has no basis functions!
 Warning:  center  59 has no basis functions!
 Warning:  center  60 has no basis functions!
 Warning:  center  61 has no basis functions!
 Warning:  center  62 has no basis functions!
 Warning:  center  63 has no basis functions!
 Warning:  center  64 has no basis functions!
 Warning:  center  65 has no basis functions!
 Warning:  center  66 has no basis functions!
   268 basis functions,   440 primitive gaussians,   278 cartesian basis functions
    39 alpha electrons       39 beta electrons
       nuclear repulsion energy       612.4366744200 Hartrees.
 NAtoms=   66 NActive=   66 NUniq=   66 SFac= 1.00D+00 NAtFMM=   60 NAOKFM=T Big=T
 Integral buffers will be    131072 words long.
 Raffenetti 2 integral format.
 Two-electron integral symmetry is turned off.
 One-electron integrals computed using PRISM.
 NBasis=   268 RedAO= T EigKep=  1.66D-06  NBF=   268
 NBsUse=   267 1.00D-06 EigRej=  6.13D-07 NBFU=   267
 ExpMin= 4.38D-02 ExpMax= 8.59D+03 ExpMxC= 1.30D+03 IAcc=3 IRadAn=         5 AccDes= 0.00D+00
 Harris functional with IExCor=  402 and IRadAn=       5 diagonalized for initial guess.
 HarFok:  IExCor=  402 AccDes= 0.00D+00 IRadAn=         5 IDoV= 1 UseB2=F ITyADJ=14
 ICtDFT=  3500011 ScaDFX=  1.000000  1.000000  1.000000  1.000000
 FoFCou: FMM=F IPFlag=           0 FMFlag=      100000 FMFlg1=        2001
         NFxFlg=           0 DoJE=T BraDBF=F KetDBF=T FulRan=T
         wScrn=  0.000000 ICntrl=     500 IOpCl=  0 I1Cent=   200000004 NGrid=           0
         NMat0=    1 NMatS0=      1 NMatT0=    0 NMatD0=    1 NMtDS0=    0 NMtDT0=    0
 Symmetry not used in FoFCou.
 Keep R1 ints in memory in canonical form, NReq=661035311.
 Requested convergence on RMS density matrix=1.00D-08 within 512 cycles.
 Requested convergence on MAX density matrix=1.00D-06.
 Requested convergence on             energy=1.00D-06.
 No special actions if energy rises.
 SCF Done:  E(RB3LYP) =  -426.970538257     A.U. after   21 cycles
            NFock= 21  Conv=0.50D-08     -V/T= 1.9902
 DoSCS=F DFT=T ScalE2(SS,OS)=  1.000000  1.000000
 Range of M.O.s used for correlation:     1   267
 NBasis=   268 NAE=    39 NBE=    39 NFC=     0 NFV=     0
 NROrb=    267 NOA=    39 NOB=    39 NVA=   228 NVB=   228

 **** Warning!!: The largest alpha MO coefficient is  0.19066330D+03


 **** Warning!!: The smallest alpha delta epsilon is  0.92536067D-01

          Differentiating once with respect to magnetic field using GIAOs.
          Electric field/nuclear overlap derivatives assumed to be zero.
 Keep R3 ints in memory in canonical form, NReq=660550538.
 FoFJK:  IHMeth= 1 ICntrl=    6127 DoSepK=F KAlg= 0 I1Cent=   0 FoldK=F
 IRaf=         1 NMat=   1 IRICut=       1 DoRegI=T DoRafI=F ISym2E= 0.
          There are     3 degrees of freedom in the 1st order CPHF.  IDoFFX=0 NUNeed=     3.
      3 vectors produced by pass  0 Test12= 2.96D-13 3.33D-08 XBig12= 1.82D+02 3.84D+00.
 AX will form     3 AO Fock derivatives at one time.
      3 vectors produced by pass  1 Test12= 2.96D-13 3.33D-08 XBig12= 5.82D-01 2.77D-01.
      3 vectors produced by pass  2 Test12= 2.96D-13 3.33D-08 XBig12= 3.10D-03 2.97D-02.
      3 vectors produced by pass  3 Test12= 2.96D-13 3.33D-08 XBig12= 1.62D-05 2.00D-03.
      3 vectors produced by pass  4 Test12= 2.96D-13 3.33D-08 XBig12= 7.45D-08 1.00D-04.
      3 vectors produced by pass  5 Test12= 2.96D-13 3.33D-08 XBig12= 2.68D-10 4.44D-06.
      3 vectors produced by pass  6 Test12= 2.96D-13 3.33D-08 XBig12= 9.28D-13 2.98D-07.
 InvSVY:  IOpt=1 It=  1 EMax= 1.78D-15
 Solved reduced A of dimension    21 with     3 vectors.
 Calculating GIAO nuclear magnetic shielding tensors.
 SCF GIAO Magnetic shielding tensor (ppm):
      1  C    Isotropic =   196.1999   Anisotropy =    46.9765
   XX=   212.3370   YX=   -12.3284   ZX=     5.2838
   XY=    -3.8340   YY=   223.2001   ZY=    -1.3107
   XZ=    -1.5336   YZ=     1.1603   ZZ=   153.0625
   Eigenvalues:   153.0028   208.0793   227.5176
      2  C    Isotropic =   208.9911   Anisotropy =    57.9627
   XX=   245.9522   YX=     6.0474   ZX=    -7.5625
   XY=     4.8914   YY=   227.9838   ZY=     3.2569
   XZ=    -0.1955   YZ=    -3.1867   ZZ=   153.0372
   Eigenvalues:   152.8747   226.4657   247.6329
      3  C    Isotropic =   209.0123   Anisotropy =    57.9349
   XX=   238.2463   YX=     9.8448   ZX=     1.3653
   XY=    11.0333   YY=   235.6916   ZY=     8.1293
   XZ=     2.8346   YZ=    -1.5265   ZZ=   153.0991
   Eigenvalues:   152.9336   226.4678   247.6356
      4  C    Isotropic =   196.2102   Anisotropy =    46.9226
   XX=   212.6301   YX=    -4.0358   ZX=    -1.7719
   XY=   -12.5123   YY=   222.8686   ZY=    -5.1369
   XZ=    -0.1383   YZ=     1.8273   ZZ=   153.1319
   Eigenvalues:   153.0701   208.0686   227.4920
      5  C    Isotropic =   205.6184   Anisotropy =    36.0741
   XX=   225.1497   YX=    -0.7827   ZX=     7.0053
   XY=     4.1326   YY=   229.0457   ZY=     0.9146
   XZ=     7.6677   YZ=    -6.8568   ZZ=   162.6598
   Eigenvalues:   161.6633   225.5241   229.6678
      6  C    Isotropic =   205.6126   Anisotropy =    36.0863
   XX=   229.4318   YX=     1.3844   ZX=    -4.5742
   XY=    -3.5440   YY=   224.7628   ZY=    -5.3919
   XZ=     1.5761   YZ=   -10.1339   ZZ=   162.6433
   Eigenvalues:   161.6492   225.5185   229.6701
      7  H    Isotropic =    31.2479   Anisotropy =    10.9576
   XX=    31.3469   YX=    -1.1076   ZX=    -0.1732
   XY=     0.6873   YY=    38.5448   ZY=    -0.3585
   XZ=     0.0308   YZ=     0.6972   ZZ=    23.8521
   Eigenvalues:    23.8495    31.3413    38.5530
      8  H    Isotropic =    31.2484   Anisotropy =    10.9569
   XX=    36.2394   YX=    -2.4678   ZX=     0.3952
   XY=    -4.2634   YY=    33.6510   ZY=    -0.0461
   XZ=    -0.5929   YZ=     0.3529   ZZ=    23.8548
   Eigenvalues:    23.8522    31.3400    38.5530
      9  H    Isotropic =    31.1222   Anisotropy =     8.8593
   XX=    36.2496   YX=     1.9025   ZX=     0.5855
   XY=     1.8544   YY=    32.4739   ZY=     0.8511
   XZ=    -0.0709   YZ=    -0.9972   ZZ=    24.6433
   Eigenvalues:    24.6358    31.7025    37.0284
     10  C    Isotropic =   175.3576   Anisotropy =    79.4823
   XX=   196.1152   YX=   -39.5756   ZX=    -4.4940
   XY=   -17.0263   YY=   203.3296   ZY=    -9.2880
   XZ=    -1.9861   YZ=    -4.6043   ZZ=   126.6281
   Eigenvalues:   125.4581   172.2690   228.3459
     11  C    Isotropic =   126.1255   Anisotropy =    58.1003
   XX=   163.2676   YX=     2.9232   ZX=     5.1778
   XY=     2.9105   YY=   159.5130   ZY=    -9.5037
   XZ=     6.5500   YZ=   -12.0099   ZZ=    55.5959
   Eigenvalues:    54.1496   159.3679   164.8590
     12  O    Isotropic =   269.6930   Anisotropy =   140.7807
   XX=   205.6824   YX=   -81.2768   ZX=   -13.6123
   XY=   -81.2819   YY=   310.5497   ZY=    24.9999
   XZ=   -10.1249   YZ=    18.5740   ZZ=   292.8469
   Eigenvalues:   161.3916   284.1406   363.5468
     13  C    Isotropic =   175.3392   Anisotropy =    79.4747
   XX=   175.4006   YX=    -3.6741   ZX=    10.2727
   XY=   -26.2023   YY=   224.0039   ZY=    -1.2713
   XZ=     4.9539   YZ=    -0.8329   ZZ=   126.6131
   Eigenvalues:   125.4370   172.2581   228.3223
     14  H    Isotropic =    30.8936   Anisotropy =     7.1767
   XX=    35.2571   YX=    -1.5257   ZX=    -0.8630
   XY=    -1.6389   YY=    29.5065   ZY=    -0.1842
   XZ=     1.8169   YZ=     1.2292   ZZ=    27.9173
   Eigenvalues:    27.6368    29.3660    35.6781
     15  H    Isotropic =    30.8939   Anisotropy =     7.1785
   XX=    29.7557   YX=     1.9055   ZX=     0.6249
   XY=     2.0257   YY=    35.0109   ZY=     0.6200
   XZ=    -2.0207   YZ=    -0.8661   ZZ=    27.9150
   Eigenvalues:    27.6358    29.3663    35.6795
     16  H    Isotropic =    31.1253   Anisotropy =     8.8535
   XX=    35.2927   YX=     2.4711   ZX=    -1.0348
   XY=     2.5212   YY=    33.4249   ZY=    -0.0265
   XZ=     0.8806   YZ=    -0.4994   ZZ=    24.6582
   Eigenvalues:    24.6504    31.6979    37.0276
     17  H    Isotropic =    22.8159   Anisotropy =    14.6693
   XX=    14.9836   YX=    -8.7582   ZX=    -3.3329
   XY=    -4.9867   YY=    21.5624   ZY=    -1.7548
   XZ=    -2.6912   YZ=    -3.0387   ZZ=    31.9016
   Eigenvalues:     9.9856    25.8666    32.5954
     18  H    Isotropic =    22.8154   Anisotropy =    14.6808
   XX=    13.3627   YX=    -3.9474   ZX=     3.2820
   XY=    -7.7153   YY=    23.1755   ZY=     1.8481
   XZ=     4.0187   YZ=     0.6156   ZZ=    31.9079
   Eigenvalues:     9.9792    25.8644    32.6026
     19  H    Isotropic =    25.8909   Anisotropy =    10.7038
   XX=    21.4912   YX=    -8.5331   ZX=    -4.5225
   XY=    -2.5084   YY=    24.3210   ZY=    -2.9216
   XZ=    -1.4577   YZ=    -3.0206   ZZ=    31.8605
   Eigenvalues:    16.0951    28.5509    33.0268
     20  H    Isotropic =    25.8931   Anisotropy =    10.7128
   XX=    18.4608   YX=    -0.5527   ZX=     4.9053
   XY=    -6.5749   YY=    27.3514   ZY=     2.2163
   XZ=     3.3374   YZ=    -0.4120   ZZ=    31.8673
   Eigenvalues:    16.0954    28.5490    33.0350
     21  H    Isotropic =    26.5973   Anisotropy =    10.3660
   XX=    18.0884   YX=     6.2937   ZX=     5.3409
   XY=     5.7424   YY=    29.6322   ZY=    -3.5193
   XZ=     2.9042   YZ=    -1.1280   ZZ=    32.0713
   Eigenvalues:    14.2773    32.0066    33.5080
     22  H    Isotropic =    26.5944   Anisotropy =    10.3632
   XX=    31.7237   YX=    -3.0556   ZX=     0.0633
   XY=    -2.5013   YY=    15.9949   ZY=    -6.3969
   XZ=    -0.6271   YZ=    -3.0529   ZZ=    32.0646
   Eigenvalues:    14.2734    32.0066    33.5032
     23  H    Isotropic =    26.5517   Anisotropy =    12.7319
   XX=    15.8389   YX=     1.0333   ZX=     1.0716
   XY=    -1.2223   YY=    30.2456   ZY=     2.7828
   XZ=     1.2937   YZ=     2.4027   ZZ=    33.5707
   Eigenvalues:    15.7553    28.8602    35.0397
     24  H    Isotropic =    18.1224   Anisotropy =    13.7057
   XX=     8.3474   YX=   -10.2712   ZX=     0.9003
   XY=   -10.2715   YY=    21.5992   ZY=    -1.6578
   XZ=    -0.4987   YZ=     0.9120   ZZ=    24.4207
   Eigenvalues:     2.7502    24.3575    27.2595
     25  H    Isotropic =    26.5487   Anisotropy =    12.7313
   XX=    25.9234   YX=    -7.7275   ZX=    -2.9185
   XY=    -5.4721   YY=    20.1546   ZY=     0.6075
   XZ=    -2.7224   YZ=     0.2115   ZZ=    33.5680
   Eigenvalues:    15.7532    28.8566    35.0362
     26  H    Isotropic =    20.4261   Anisotropy =    21.6257
   XX=     5.9235   YX=   -11.4251   ZX=    -2.3689
   XY=   -11.4265   YY=    20.6639   ZY=     4.3449
   XZ=     1.3129   YZ=    -2.4133   ZZ=    34.6909
   Eigenvalues:    -0.3029    26.7380    34.8432
     27  Bq   Isotropic =     6.1603   Anisotropy =    22.6875
   XX=    15.8815   YX=    -2.9461   ZX=    -0.6211
   XY=    -2.9456   YY=    19.6794   ZY=     1.1415
   XZ=     0.5637   YZ=    -1.0383   ZZ=   -17.0799
   Eigenvalues:   -17.0800    14.2756    21.2853
     28  Bq   Isotropic =     5.5719   Anisotropy =    22.2743
   XX=    15.2649   YX=    -2.7997   ZX=    -0.2922
   XY=    -2.7997   YY=    18.8749   ZY=     0.5374
   XZ=     1.1330   YZ=    -2.0828   ZZ=   -17.4241
   Eigenvalues:   -17.4445    13.7388    20.4215
     29  Bq   Isotropic =     4.6528   Anisotropy =    20.7889
   XX=    13.6850   YX=    -2.5836   ZX=     0.0308
   XY=    -2.5843   YY=    17.0176   ZY=    -0.0557
   XZ=     1.6355   YZ=    -3.0045   ZZ=   -16.7443
   Eigenvalues:   -16.8304    12.2767    18.5120
     30  Bq   Isotropic =     3.5979   Anisotropy =    18.4659
   XX=    11.4732   YX=    -2.3113   ZX=     0.3119
   XY=    -2.3127   YY=    14.4559   ZY=    -0.5721
   XZ=     2.0283   YZ=    -3.7244   ZZ=   -15.1353
   Eigenvalues:   -15.3280    10.2133    15.9085
     31  Bq   Isotropic =     2.5846   Anisotropy =    15.6243
   XX=     8.9899   YX=    -2.0010   ZX=     0.5285
   XY=    -2.0030   YY=    11.5739   ZY=    -0.9700
   XZ=     2.2901   YZ=    -4.2036   ZZ=   -12.8100
   Eigenvalues:   -13.1462     7.8992    13.0008
     32  Bq   Isotropic =     1.7376   Anisotropy =    12.6056
   XX=     6.5485   YX=    -1.6734   ZX=     0.6728
   XY=    -1.6760   YY=     8.7113   ZY=    -1.2354
   XZ=     2.4220   YZ=    -4.4436   ZZ=   -10.0469
   Eigenvalues:   -10.5649     5.6364    10.1413
     33  Bq   Isotropic =     1.1172   Anisotropy =     9.7286
   XX=     4.3685   YX=    -1.3487   ZX=     0.7496
   XY=    -1.3518   YY=     6.1137   ZY=    -1.3771
   XZ=     2.4411   YZ=    -4.4766   ZZ=    -7.1306
   Eigenvalues:    -7.8848     3.6335     7.6029
     34  Bq   Isotropic =     0.7262   Anisotropy =     7.2796
   XX=     2.5656   YX=    -1.0438   ZX=     0.7718
   XY=    -1.0472   YY=     3.9185   ZY=    -1.4183
   XZ=     2.3738   YZ=    -4.3508   ZZ=    -4.3053
   Eigenvalues:    -5.3973     1.9968     5.5793
     35  Bq   Isotropic =     0.5288   Anisotropy =     5.5550
   XX=     1.1666   YX=    -0.7711   ZX=     0.7548
   XY=    -0.7744   YY=     2.1682   ZY=    -1.3877
   XZ=     2.2479   YZ=    -4.1177   ZZ=    -1.7484
   Eigenvalues:    -3.3924     0.7466     4.2321
     36  Bq   Isotropic =     0.4712   Anisotropy =     4.8871
   XX=     0.1391   YX=    -0.5374   ZX=     0.7137
   XY=    -0.5406   YY=     0.8393   ZY=    -1.3125
   XZ=     2.0881   YZ=    -3.8230   ZZ=     0.4353
   Eigenvalues:    -2.1621    -0.1535     3.7293
     37  Bq   Isotropic =     0.4992   Anisotropy =     5.2903
   XX=    -0.5800   YX=    -0.3451   ZX=     0.6604
   XY=    -0.3479   YY=    -0.1282   ZY=    -1.2150
   XZ=     1.9139   YZ=    -3.5023   ZZ=     2.2059
   Eigenvalues:    -1.7607    -0.7677     4.0261
     38  Bq   Isotropic =     0.5678   Anisotropy =     6.1706
   XX=    -1.0613   YX=    -0.1926   ZX=     0.6039
   XY=    -0.1949   YY=    -0.8066   ZY=    -1.1112
   XZ=     1.7389   YZ=    -3.1806   ZZ=     3.5713
   Eigenvalues:    -1.8123    -1.1658     4.6816
     39  Bq   Isotropic =     0.6453   Anisotropy =     7.0107
   XX=    -1.3692   YX=    -0.0762   ZX=     0.5495
   XY=    -0.0780   YY=    -1.2655   ZY=    -1.0112
   XZ=     1.5715   YZ=    -2.8738   ZZ=     4.5706
   Eigenvalues:    -1.9730    -1.4102     5.3191
     40  Bq   Isotropic =     0.7126   Anisotropy =     7.6321
   XX=    -1.5563   YX=     0.0095   ZX=     0.5002
   XY=     0.0082   YY=    -1.5638   ZY=    -0.9206
   XZ=     1.4166   YZ=    -2.5903   ZZ=     5.2580
   Eigenvalues:    -2.1123    -1.5506     5.8007
     41  Bq   Isotropic =     0.7606   Anisotropy =     8.0186
   XX=    -1.6620   YX=     0.0699   ZX=     0.4574
   XY=     0.0690   YY=    -1.7480   ZY=    -0.8416
   XZ=     1.2763   YZ=    -2.3339   ZZ=     5.6917
   Eigenvalues:    -2.2013    -1.6233     6.1063
     42  Bq   Isotropic =     0.7867   Anisotropy =     8.2045
   XX=    -1.7140   YX=     0.1103   ZX=     0.4211
   XY=     0.1098   YY=    -1.8528   ZY=    -0.7746
   XZ=     1.1509   YZ=    -2.1052   ZZ=     5.9270
   Eigenvalues:    -2.2429    -1.6533     6.2564
     43  Bq   Isotropic =     0.7925   Anisotropy =     8.2343
   XX=    -1.7314   YX=     0.1354   ZX=     0.3908
   XY=     0.1352   YY=    -1.9032   ZY=    -0.7185
   XZ=     1.0398   YZ=    -1.9027   ZZ=     6.0121
   Eigenvalues:    -2.2475    -1.6570     6.2820
     44  Bq   Isotropic =     0.7811   Anisotropy =     8.1490
   XX=    -1.7268   YX=     0.1491   ZX=     0.3656
   XY=     0.1492   YY=    -1.9168   ZY=    -0.6720
   XZ=     0.9418   YZ=    -1.7245   ZZ=     5.9869
   Eigenvalues:    -2.2255    -1.6449     6.2138
     45  Bq   Isotropic =     0.7565   Anisotropy =     7.9827
   XX=    -1.7082   YX=     0.1547   ZX=     0.3448
   XY=     0.1550   YY=    -1.9058   ZY=    -0.6334
   XZ=     0.8556   YZ=    -1.5677   ZZ=     5.8835
   Eigenvalues:    -2.1855    -1.6234     6.0782
     46  Bq   Isotropic =     0.7223   Anisotropy =     7.7615
   XX=    -1.6809   YX=     0.1546   ZX=     0.3274
   XY=     0.1551   YY=    -1.8787   ZY=    -0.6011
   XZ=     0.7797   YZ=    -1.4299   ZZ=     5.7264
   Eigenvalues:    -2.1337    -1.5961     5.8966
     47  Bq   Isotropic =     0.6817   Anisotropy =     7.5052
   XX=    -1.6479   YX=     0.1508   ZX=     0.3126
   XY=     0.1514   YY=    -1.8411   ZY=    -0.5737
   XZ=     0.7129   YZ=    -1.3085   ZZ=     5.5343
   Eigenvalues:    -2.0748    -1.5652     5.6852
     48  Bq   Isotropic =     0.6376   Anisotropy =     7.2285
   XX=    -1.6113   YX=     0.1448   ZX=     0.2998
   XY=     0.1454   YY=    -1.7969   ZY=    -0.5500
   XZ=     0.6539   YZ=    -1.2013   ZZ=     5.3210
   Eigenvalues:    -2.0120    -1.5319     5.4566
     49  Bq   Isotropic =     0.5918   Anisotropy =     6.9416
   XX=    -1.5723   YX=     0.1377   ZX=     0.2885
   XY=     0.1383   YY=    -1.7488   ZY=    -0.5291
   XZ=     0.6016   YZ=    -1.1064   ZZ=     5.0965
   Eigenvalues:    -1.9474    -1.4967     5.2196
     50  Bq   Isotropic =     0.5461   Anisotropy =     6.6520
   XX=    -1.5314   YX=     0.1303   ZX=     0.2782
   XY=     0.1309   YY=    -1.6984   ZY=    -0.5101
   XZ=     0.5552   YZ=    -1.0220   ZZ=     4.8681
   Eigenvalues:    -1.8826    -1.4599     4.9807
     51  Bq   Isotropic =     0.5014   Anisotropy =     6.3645
   XX=    -1.4893   YX=     0.1230   ZX=     0.2687
   XY=     0.1236   YY=    -1.6470   ZY=    -0.4925
   XZ=     0.5139   YZ=    -0.9466   ZZ=     4.6406
   Eigenvalues:    -1.8183    -1.4218     4.7444
     52  Bq   Isotropic =     0.4587   Anisotropy =     6.0826
   XX=    -1.4462   YX=     0.1162   ZX=     0.2597
   XY=     0.1167   YY=    -1.5952   ZY=    -0.4758
   XZ=     0.4768   YZ=    -0.8790   ZZ=     4.4175
   Eigenvalues:    -1.7552    -1.3825     4.5138
     53  Bq   Isotropic =     0.4183   Anisotropy =     5.8086
   XX=    -1.4025   YX=     0.1101   ZX=     0.2510
   XY=     0.1106   YY=    -1.5435   ZY=    -0.4598
   XZ=     0.4434   YZ=    -0.8180   ZZ=     4.2011
   Eigenvalues:    -1.6937    -1.3421     4.2908
     54  Bq   Isotropic =     0.3807   Anisotropy =     5.5439
   XX=    -1.3583   YX=     0.1047   ZX=     0.2425
   XY=     0.1052   YY=    -1.4924   ZY=    -0.4443
   XZ=     0.4133   YZ=    -0.7629   ZZ=     3.9927
   Eigenvalues:    -1.6338    -1.3008     4.0766
     55  Bq   Isotropic =     0.3458   Anisotropy =     5.2892
   XX=    -1.3138   YX=     0.1001   ZX=     0.2342
   XY=     0.1005   YY=    -1.4420   ZY=    -0.4290
   XZ=     0.3859   YZ=    -0.7128   ZZ=     3.7933
   Eigenvalues:    -1.5756    -1.2588     3.8719
     56  Bq   Isotropic =     0.3138   Anisotropy =     5.0450
   XX=    -1.2693   YX=     0.0962   ZX=     0.2260
   XY=     0.0966   YY=    -1.3925   ZY=    -0.4140
   XZ=     0.3610   YZ=    -0.6671   ZZ=     3.6033
   Eigenvalues:    -1.5192    -1.2165     3.6771
     57  Bq   Isotropic =     0.2845   Anisotropy =     4.8114
   XX=    -1.2251   YX=     0.0930   ZX=     0.2179
   XY=     0.0932   YY=    -1.3440   ZY=    -0.3991
   XZ=     0.3382   YZ=    -0.6253   ZZ=     3.4226
   Eigenvalues:    -1.4645    -1.1741     3.4921
     58  Bq   Isotropic =     0.2578   Anisotropy =     4.5885
   XX=    -1.1812   YX=     0.0902   ZX=     0.2099
   XY=     0.0904   YY=    -1.2966   ZY=    -0.3845
   XZ=     0.3173   YZ=    -0.5868   ZZ=     3.2514
   Eigenvalues:    -1.4116    -1.1317     3.3168
     59  Bq   Isotropic =     0.2336   Anisotropy =     4.3760
   XX=    -1.1379   YX=     0.0879   ZX=     0.2020
   XY=     0.0881   YY=    -1.2504   ZY=    -0.3700
   XZ=     0.2980   YZ=    -0.5513   ZZ=     3.0892
   Eigenvalues:    -1.3603    -1.0898     3.1510
     60  Bq   Isotropic =     0.2117   Anisotropy =     4.1737
   XX=    -1.0954   YX=     0.0859   ZX=     0.1942
   XY=     0.0860   YY=    -1.2053   ZY=    -0.3558
   XZ=     0.2802   YZ=    -0.5185   ZZ=     2.9359
   Eigenvalues:    -1.3106    -1.0484     2.9942
     61  Bq   Isotropic =     0.1919   Anisotropy =     3.9812
   XX=    -1.0538   YX=     0.0841   ZX=     0.1866
   XY=     0.0843   YY=    -1.1615   ZY=    -0.3418
   XZ=     0.2637   YZ=    -0.4881   ZZ=     2.7911
   Eigenvalues:    -1.2626    -1.0077     2.8461
     62  Bq   Isotropic =     0.1740   Anisotropy =     3.7983
   XX=    -1.0133   YX=     0.0826   ZX=     0.1791
   XY=     0.0827   YY=    -1.1190   ZY=    -0.3281
   XZ=     0.2483   YZ=    -0.4598   ZZ=     2.6543
   Eigenvalues:    -1.2162    -0.9681     2.7062
     63  Bq   Isotropic =     0.1578   Anisotropy =     3.6246
   XX=    -0.9739   YX=     0.0812   ZX=     0.1717
   XY=     0.0813   YY=    -1.0779   ZY=    -0.3146
   XZ=     0.2341   YZ=    -0.4334   ZZ=     2.5252
   Eigenvalues:    -1.1713    -0.9294     2.5742
     64  Bq   Isotropic =     0.1432   Anisotropy =     3.4597
   XX=    -0.9358   YX=     0.0799   ZX=     0.1646
   XY=     0.0800   YY=    -1.0381   ZY=    -0.3016
   XZ=     0.2208   YZ=    -0.4089   ZZ=     2.4034
   Eigenvalues:    -1.1281    -0.8920     2.4497
     65  Bq   Isotropic =     0.1300   Anisotropy =     3.3032
   XX=    -0.8989   YX=     0.0787   ZX=     0.1576
   XY=     0.0787   YY=    -0.9996   ZY=    -0.2888
   XZ=     0.2084   YZ=    -0.3859   ZZ=     2.2884
   Eigenvalues:    -1.0863    -0.8558     2.3321
     66  Bq   Isotropic =     0.1181   Anisotropy =     3.1546
   XX=    -0.8633   YX=     0.0775   ZX=     0.1509
   XY=     0.0775   YY=    -0.9625   ZY=    -0.2765
   XZ=     0.1967   YZ=    -0.3645   ZZ=     2.1799
   Eigenvalues:    -1.0461    -0.8209     2.2211
 End of Minotr F.D. properties file   721 does not exist.
 End of Minotr F.D. properties file   722 does not exist.
 End of Minotr F.D. properties file   788 does not exist.

 **********************************************************************

            Population analysis using the SCF density.

 **********************************************************************

 Alpha  occ. eigenvalues --  -19.12408 -10.19802 -10.13585 -10.13584 -10.13525
 Alpha  occ. eigenvalues --  -10.13525 -10.13438 -10.13407 -10.13407 -10.13385
 Alpha  occ. eigenvalues --   -1.14635  -0.94436  -0.87783  -0.84906  -0.77680
 Alpha  occ. eigenvalues --   -0.74409  -0.64298  -0.62569  -0.61563  -0.58688
 Alpha  occ. eigenvalues --   -0.54871  -0.52849  -0.51652  -0.48350  -0.45819
 Alpha  occ. eigenvalues --   -0.45733  -0.44491  -0.42506  -0.41667  -0.39877
 Alpha  occ. eigenvalues --   -0.38921  -0.37453  -0.34034  -0.32741  -0.28165
 Alpha  occ. eigenvalues --   -0.25086  -0.23630  -0.20606  -0.15176
 Alpha virt. eigenvalues --   -0.05922  -0.02178   0.00603   0.01177   0.02627
 Alpha virt. eigenvalues --    0.03491   0.03582   0.04231   0.04700   0.05528
 Alpha virt. eigenvalues --    0.06360   0.07318   0.08019   0.08185   0.08747
 Alpha virt. eigenvalues --    0.09976   0.10317   0.10624   0.12058   0.13644
 Alpha virt. eigenvalues --    0.13657   0.13740   0.14815   0.15001   0.15219
 Alpha virt. eigenvalues --    0.16179   0.16643   0.17292   0.18045   0.18146
 Alpha virt. eigenvalues --    0.18827   0.19588   0.19917   0.20446   0.20827
 Alpha virt. eigenvalues --    0.20975   0.21442   0.21658   0.23304   0.23382
 Alpha virt. eigenvalues --    0.23816   0.24154   0.24928   0.25396   0.26117
 Alpha virt. eigenvalues --    0.26429   0.27561   0.28186   0.29620   0.29970
 Alpha virt. eigenvalues --    0.30670   0.30831   0.31601   0.32691   0.33612
 Alpha virt. eigenvalues --    0.33886   0.35279   0.35568   0.35939   0.36913
 Alpha virt. eigenvalues --    0.37426   0.40361   0.40438   0.42255   0.42698
 Alpha virt. eigenvalues --    0.44245   0.45913   0.46586   0.48556   0.49453
 Alpha virt. eigenvalues --    0.50981   0.51711   0.53802   0.55890   0.57022
 Alpha virt. eigenvalues --    0.60244   0.61659   0.65873   0.66401   0.66835
 Alpha virt. eigenvalues --    0.66986   0.67435   0.68779   0.68881   0.70656
 Alpha virt. eigenvalues --    0.72158   0.72947   0.74101   0.75321   0.76287
 Alpha virt. eigenvalues --    0.77188   0.77991   0.78084   0.80252   0.81261
 Alpha virt. eigenvalues --    0.82119   0.82206   0.83923   0.84096   0.85706
 Alpha virt. eigenvalues --    0.87627   0.87759   0.88462   0.90144   0.90580
 Alpha virt. eigenvalues --    0.93106   0.96293   0.98144   0.99593   1.00812
 Alpha virt. eigenvalues --    1.01956   1.04455   1.06878   1.09350   1.10369
 Alpha virt. eigenvalues --    1.13055   1.13073   1.15216   1.15737   1.17917
 Alpha virt. eigenvalues --    1.19266   1.22622   1.23444   1.26034   1.28646
 Alpha virt. eigenvalues --    1.32490   1.33018   1.35000   1.38933   1.39102
 Alpha virt. eigenvalues --    1.48488   1.49640   1.57096   1.57299   1.58697
 Alpha virt. eigenvalues --    1.59072   1.61318   1.63762   1.66039   1.71191
 Alpha virt. eigenvalues --    1.71854   1.72603   1.74464   1.78741   1.80739
 Alpha virt. eigenvalues --    1.82466   1.85981   1.87221   1.90016   1.92513
 Alpha virt. eigenvalues --    1.93932   1.95002   1.99676   2.01558   2.05106
 Alpha virt. eigenvalues --    2.06430   2.10948   2.16547   2.16966   2.22917
 Alpha virt. eigenvalues --    2.27845   2.31191   2.32762   2.34354   2.36806
 Alpha virt. eigenvalues --    2.37930   2.46125   2.49227   2.51575   2.58217
 Alpha virt. eigenvalues --    2.61396   2.65028   2.68247   2.68834   2.71884
 Alpha virt. eigenvalues --    2.74634   2.79446   2.80254   2.83810   2.85354
 Alpha virt. eigenvalues --    2.89214   2.90129   2.91308   3.04752   3.06077
 Alpha virt. eigenvalues --    3.08802   3.09783   3.13064   3.18307   3.22564
 Alpha virt. eigenvalues --    3.24572   3.27156   3.29116   3.32296   3.38274
 Alpha virt. eigenvalues --    3.38282   3.41129   3.47401   3.48310   3.53426
 Alpha virt. eigenvalues --    3.59830   3.64354   3.65209   3.69266   3.70788
 Alpha virt. eigenvalues --    3.79424   3.80393   3.87883   3.94739   4.02139
 Alpha virt. eigenvalues --    4.04723   4.16875   4.22274   4.55013   4.70388
 Alpha virt. eigenvalues --    5.16948   5.18335   5.71499  23.41081  23.87105
 Alpha virt. eigenvalues --   23.87337  23.94017  23.99300  24.22759  24.23036
 Alpha virt. eigenvalues --   24.25767  24.33288  50.05175
     Molecular Orbital Coefficients:
                           1         2         3         4         5
                           O         O         O         O         O
     Eigenvalues --   -19.12408 -10.19802 -10.13585 -10.13584 -10.13525
   1 1   C  1S          0.00000  -0.00003   0.40170   0.36879  -0.03167
   2        2S          0.00002   0.00002   0.33055   0.30368  -0.02604
   3        2PX        -0.00001  -0.00003  -0.00011   0.00005  -0.00013
   4        2PY         0.00000   0.00007  -0.00005  -0.00007   0.00012
   5        2PZ         0.00000  -0.00001   0.00026   0.00022  -0.00002
   6        3S         -0.00026  -0.00028   0.01712   0.01417  -0.00160
   7        3PX         0.00006   0.00015   0.00253   0.00110   0.00050
   8        3PY        -0.00005  -0.00045   0.00031   0.00043  -0.00027
   9        3PZ         0.00000   0.00004   0.00015   0.00019   0.00003
  10        4S          0.00361   0.00162  -0.04348  -0.02815   0.01456
  11        4PX        -0.00047  -0.00141  -0.00952  -0.00593   0.00578
  12        4PY         0.00193   0.00205  -0.00980  -0.00573   0.00278
  13        4PZ         0.00029  -0.00019  -0.00449  -0.00401   0.00277
  14        5S          0.00337   0.03047  -0.00182  -0.03142   0.00743
  15        5PX        -0.00035   0.00586  -0.01063  -0.00154  -0.00237
  16        5PY         0.00117  -0.00169   0.01024  -0.00805   0.00526
  17        5PZ         0.00013   0.00000   0.00054  -0.00103   0.00147
  18        6D 0       -0.00002   0.00003  -0.00064  -0.00042   0.00010
  19        6D+1        0.00000  -0.00001  -0.00004  -0.00003  -0.00001
  20        6D-1       -0.00001  -0.00001   0.00001   0.00000   0.00013
  21        6D+2        0.00001   0.00012   0.00009  -0.00020   0.00048
  22        6D-2       -0.00001  -0.00003  -0.00075  -0.00047   0.00022
  23 2   C  1S         -0.00001  -0.00007   0.04375   0.04042   0.11884
  24        2S          0.00004   0.00003   0.03603   0.03340   0.09792
  25        2PX         0.00000  -0.00006  -0.00014   0.00017  -0.00065
  26        2PY         0.00007   0.00007  -0.00051  -0.00053   0.00046
  27        2PZ         0.00000   0.00001   0.00001   0.00001   0.00010
  28        3S         -0.00022  -0.00071   0.00234   0.00115   0.00616
  29        3PX         0.00009   0.00049   0.00040  -0.00103   0.00283
  30        3PY        -0.00052  -0.00081   0.00186   0.00214  -0.00196
  31        3PZ         0.00003  -0.00004   0.00002   0.00003  -0.00007
  32        4S         -0.00722  -0.00661   0.00079   0.00385  -0.02018
  33        4PX         0.00213   0.00216   0.00344   0.00454  -0.01698
  34        4PY         0.00159   0.00060  -0.02298  -0.01144   0.00557
  35        4PZ         0.00016   0.00061  -0.00119   0.00075  -0.00557
  36        5S         -0.00331  -0.03023   0.03758   0.01482  -0.00042
  37        5PX         0.00135   0.00453   0.03572   0.00044   0.01805
  38        5PY         0.00023   0.01024   0.01396  -0.01014   0.00505
  39        5PZ         0.00015  -0.00002  -0.00176  -0.00013  -0.00254
  40        6D 0        0.00003  -0.00001   0.00025   0.00026   0.00049
  41        6D+1       -0.00003   0.00001  -0.00002   0.00002  -0.00014
  42        6D-1        0.00000   0.00000  -0.00009  -0.00012  -0.00001
  43        6D+2        0.00004  -0.00037   0.00113   0.00065  -0.00009
  44        6D-2        0.00016   0.00030   0.00003  -0.00039   0.00177
  45 3   C  1S         -0.00001  -0.00007  -0.04051   0.04379  -0.09429
  46        2S          0.00004   0.00003  -0.03335   0.03618  -0.07767
  47        2PX        -0.00006  -0.00002  -0.00047   0.00039  -0.00003
  48        2PY         0.00004   0.00009   0.00013  -0.00044  -0.00068
  49        2PZ         0.00000   0.00001  -0.00001   0.00001  -0.00009
  50        3S         -0.00022  -0.00071  -0.00224   0.00133  -0.00537
  51        3PX         0.00039   0.00042   0.00168  -0.00137   0.00016
  52        3PY        -0.00035  -0.00085  -0.00052   0.00207   0.00296
  53        3PZ         0.00003  -0.00004  -0.00002   0.00003   0.00011
  54        4S         -0.00722  -0.00661  -0.00048   0.00389   0.02166
  55        4PX        -0.00249  -0.00168  -0.01683   0.00850  -0.00604
  56        4PY        -0.00093  -0.00149   0.01451  -0.01119  -0.01470
  57        4PZ         0.00016   0.00061   0.00125   0.00065   0.00539
  58        5S         -0.00331  -0.03023  -0.03629   0.01771  -0.00614
  59        5PX        -0.00093  -0.01106   0.03165   0.00582   0.00861
  60        5PY        -0.00101   0.00174   0.02192  -0.00761   0.01581
  61        5PZ         0.00015  -0.00002   0.00174  -0.00027   0.00246
  62        6D 0        0.00003  -0.00001  -0.00023   0.00028  -0.00044
  63        6D+1        0.00002   0.00000  -0.00008   0.00010  -0.00010
  64        6D-1        0.00002   0.00000   0.00003  -0.00008  -0.00009
  65        6D+2        0.00013   0.00043   0.00039  -0.00065  -0.00145
  66        6D-2        0.00010  -0.00021  -0.00100   0.00051  -0.00071
  67 4   C  1S          0.00000  -0.00003  -0.37152   0.39916   0.02761
  68        2S          0.00002   0.00002  -0.30570   0.32867   0.02272
  69        2PX         0.00000  -0.00004  -0.00010   0.00004  -0.00001
  70        2PY         0.00001   0.00006  -0.00007  -0.00008  -0.00012
  71        2PZ         0.00000  -0.00001  -0.00024   0.00024   0.00001
  72        3S         -0.00026  -0.00028  -0.01595   0.01547   0.00126
  73        3PX         0.00001   0.00029   0.00155  -0.00109   0.00023
  74        3PY        -0.00008  -0.00037   0.00190  -0.00084   0.00034
  75        3PZ         0.00000   0.00004  -0.00013   0.00020  -0.00001
  76        4S          0.00361   0.00162   0.04114  -0.03147  -0.01245
  77        4PX        -0.00137  -0.00096  -0.01272   0.00906   0.00443
  78        4PY         0.00144   0.00229  -0.00253   0.00208   0.00343
  79        4PZ         0.00029  -0.00019   0.00417  -0.00435  -0.00257
  80        5S          0.00337   0.03047  -0.00066  -0.03146   0.00582
  81        5PX        -0.00079  -0.00176   0.00343   0.00735   0.00105
  82        5PY         0.00092  -0.00584  -0.01468  -0.00192  -0.00484
  83        5PZ         0.00013   0.00000  -0.00062  -0.00099  -0.00138
  84        6D 0       -0.00002   0.00003   0.00060  -0.00047  -0.00008
  85        6D+1        0.00000   0.00002  -0.00001   0.00002   0.00011
  86        6D-1        0.00000   0.00000  -0.00004   0.00003  -0.00007
  87        6D+2       -0.00001  -0.00008   0.00069  -0.00040  -0.00007
  88        6D-2        0.00000   0.00010   0.00020  -0.00039  -0.00038
  89 5   C  1S          0.00000  -0.00001  -0.07617   0.09620   0.00814
  90        2S          0.00000   0.00001  -0.06285   0.07952   0.00671
  91        2PX         0.00000   0.00000  -0.00034  -0.00007   0.00000
  92        2PY         0.00002   0.00002  -0.00064   0.00036  -0.00003
  93        2PZ         0.00000   0.00000   0.00002   0.00002   0.00001
  94        3S          0.00002  -0.00005  -0.00230   0.00238   0.00023
  95        3PX        -0.00003  -0.00001   0.00183   0.00020   0.00001
  96        3PY        -0.00012  -0.00014   0.00277  -0.00124   0.00033
  97        3PZ         0.00000   0.00001  -0.00027   0.00017   0.00000
  98        4S          0.00015   0.00135  -0.01029   0.00534   0.00646
  99        4PX         0.00052   0.00047   0.00487  -0.00211  -0.00070
 100        4PY        -0.00006   0.00043  -0.00805   0.00399   0.00231
 101        4PZ        -0.00009  -0.00003   0.00101   0.00050   0.00085
 102        5S         -0.00046  -0.01660  -0.00578   0.00445  -0.00348
 103        5PX         0.00039  -0.00132  -0.00454  -0.00307  -0.00206
 104        5PY        -0.00009  -0.00371  -0.00652   0.00069  -0.00406
 105        5PZ        -0.00006  -0.00001   0.00106   0.00021   0.00076
 106        6D 0        0.00002   0.00002  -0.00027   0.00050   0.00002
 107        6D+1        0.00000   0.00001  -0.00002  -0.00002   0.00001
 108        6D-1       -0.00002  -0.00001  -0.00004   0.00010   0.00003
 109        6D+2        0.00003   0.00006  -0.00176   0.00082  -0.00007
 110        6D-2        0.00001   0.00000  -0.00055  -0.00034  -0.00007
 111 6   C  1S          0.00000  -0.00001   0.08348   0.08994  -0.01147
 112        2S          0.00000   0.00001   0.06889   0.07436  -0.00943
 113        2PX        -0.00002  -0.00002  -0.00075  -0.00020  -0.00003
 114        2PY         0.00001   0.00001   0.00008   0.00025   0.00003
 115        2PZ         0.00000   0.00000  -0.00002   0.00002  -0.00001
 116        3S          0.00002  -0.00005   0.00248   0.00219  -0.00057
 117        3PX         0.00012   0.00013   0.00338   0.00067   0.00038
 118        3PY        -0.00004  -0.00007  -0.00003  -0.00085  -0.00033
 119        3PZ         0.00000   0.00001   0.00028   0.00015   0.00001
 120        4S          0.00015   0.00135   0.01067   0.00452  -0.00652
 121        4PX        -0.00024  -0.00062  -0.00429  -0.00188   0.00158
 122        4PY        -0.00047  -0.00016   0.00874   0.00326  -0.00164
 123        4PZ        -0.00009  -0.00003  -0.00097   0.00058  -0.00077
 124        5S         -0.00046  -0.01660   0.00612   0.00399   0.00068
 125        5PX        -0.00014   0.00383  -0.00783   0.00170  -0.00408
 126        5PY        -0.00037  -0.00090  -0.00005   0.00296   0.00016
 127        5PZ        -0.00006  -0.00001  -0.00104   0.00029  -0.00079
 128        6D 0        0.00002   0.00002   0.00031   0.00048  -0.00002
 129        6D+1        0.00001   0.00000  -0.00005  -0.00007   0.00003
 130        6D-1       -0.00001  -0.00001   0.00001   0.00007  -0.00001
 131        6D+2       -0.00001  -0.00003  -0.00028  -0.00063   0.00002
 132        6D-2        0.00003   0.00005   0.00187   0.00046   0.00013
 133 7   H  1S          0.00001   0.00000  -0.00019  -0.00024  -0.00002
 134        2S         -0.00014  -0.00015   0.00125   0.00003   0.00019
 135        3S         -0.00003  -0.00006   0.00287   0.00214  -0.00021
 136 8   H  1S          0.00001   0.00000   0.00017  -0.00026   0.00000
 137        2S         -0.00014  -0.00015  -0.00124   0.00013  -0.00015
 138        3S         -0.00003  -0.00006  -0.00269   0.00236   0.00035
 139 9   H  1S          0.00001   0.00003  -0.00015   0.00009   0.00006
 140        2S         -0.00025  -0.00042  -0.00024  -0.00005  -0.00007
 141        3S          0.00010   0.00029   0.00087   0.00055  -0.00131
 142 10  C  1S         -0.00001   0.00102  -0.01995   0.01234  -0.34267
 143        2S          0.00003   0.00091  -0.01643   0.01034  -0.28198
 144        2PX        -0.00008  -0.00043  -0.00009   0.00011  -0.00014
 145        2PY         0.00010   0.00007   0.00002  -0.00012  -0.00006
 146        2PZ         0.00000  -0.00004  -0.00003  -0.00001  -0.00023
 147        3S         -0.00018  -0.00036  -0.00092  -0.00076  -0.01463
 148        3PX         0.00030   0.00077   0.00045  -0.00046   0.00088
 149        3PY        -0.00039  -0.00030   0.00013   0.00088   0.00259
 150        3PZ         0.00001   0.00011   0.00003   0.00011  -0.00025
 151        4S          0.00532   0.01494  -0.01082   0.00979   0.02484
 152        4PX        -0.00163  -0.00568   0.00197  -0.00178  -0.00217
 153        4PY        -0.00574  -0.00456   0.00380  -0.00496  -0.00367
 154        4PZ        -0.00095   0.00148  -0.00042   0.00027   0.00367
 155        5S         -0.00674   0.03076  -0.01601   0.00886  -0.00520
 156        5PX         0.00100   0.00406  -0.00667   0.00024  -0.00649
 157        5PY         0.00069  -0.01033   0.00596  -0.00278   0.00557
 158        5PZ        -0.00078   0.00055  -0.00048   0.00040   0.00002
 159        6D 0        0.00000   0.00033  -0.00007   0.00009   0.00047
 160        6D+1        0.00009  -0.00011  -0.00004   0.00004  -0.00008
 161        6D-1       -0.00001   0.00001   0.00002   0.00002   0.00004
 162        6D+2       -0.00024  -0.00093  -0.00017   0.00041   0.00053
 163        6D-2        0.00030  -0.00016  -0.00024   0.00034   0.00036
 164 11  C  1S         -0.00002   0.56270   0.00000   0.00000  -0.00014
 165        2S          0.00008   0.46310   0.00000   0.00007  -0.00010
 166        2PX        -0.00019  -0.00051  -0.00008   0.00006  -0.00041
 167        2PY         0.00035   0.00094  -0.00005  -0.00010  -0.00027
 168        2PZ        -0.00002   0.00013   0.00000  -0.00001  -0.00001
 169        3S          0.00044   0.02207  -0.00002  -0.00049  -0.00014
 170        3PX         0.00047  -0.00047   0.00038  -0.00035   0.00070
 171        3PY        -0.00086   0.00087   0.00024   0.00060   0.00053
 172        3PZ         0.00007   0.00047   0.00000   0.00005   0.00002
 173        4S          0.01031  -0.03252  -0.00018  -0.00450   0.00305
 174        4PX        -0.00800  -0.00687   0.00119   0.00107  -0.00588
 175        4PY         0.01468   0.01260   0.00055  -0.00207  -0.00539
 176        4PZ         0.00294  -0.00585   0.00000   0.00011   0.00046
 177        5S          0.01487  -0.02967   0.00003   0.00072   0.00040
 178        5PX         0.00192  -0.00762  -0.00401  -0.00016  -0.00772
 179        5PY        -0.00352   0.01398  -0.00216   0.00066  -0.00363
 180        5PZ         0.00126  -0.00148  -0.00001  -0.00018   0.00009
 181        6D 0        0.00031  -0.00113   0.00000   0.00002   0.00003
 182        6D+1       -0.00004  -0.00006   0.00001  -0.00002  -0.00015
 183        6D-1        0.00007   0.00012   0.00001   0.00004  -0.00009
 184        6D+2        0.00044  -0.00080   0.00019  -0.00013   0.00090
 185        6D-2        0.00069  -0.00125  -0.00013  -0.00019  -0.00064
 186 12  O  1S          0.55124  -0.00009   0.00000   0.00000   0.00000
 187        2S          0.46957  -0.00009   0.00000   0.00003   0.00001
 188        2PX         0.00048   0.00026  -0.00001   0.00002  -0.00002
 189        2PY        -0.00088  -0.00048  -0.00001  -0.00004  -0.00002
 190        2PZ         0.00106   0.00004   0.00000   0.00000   0.00000
 191        3S          0.01532   0.00089  -0.00001  -0.00027  -0.00003
 192        3PX         0.00047  -0.00078   0.00003  -0.00012   0.00006
 193        3PY        -0.00085   0.00143   0.00003   0.00021   0.00009
 194        3PZ        -0.00028  -0.00011   0.00000  -0.00001   0.00000
 195        4S         -0.01854  -0.00771   0.00004   0.00109   0.00011
 196        4PX        -0.00230  -0.00154  -0.00013   0.00032   0.00093
 197        4PY         0.00422   0.00282  -0.00010  -0.00057   0.00052
 198        4PZ        -0.00065   0.00022   0.00000  -0.00010  -0.00004
 199        5S         -0.00398   0.00786   0.00019   0.00475   0.00118
 200        5PX        -0.00099   0.00227  -0.00003   0.00071   0.00091
 201        5PY         0.00181  -0.00417  -0.00008  -0.00129  -0.00011
 202        5PZ         0.00060   0.00326   0.00003   0.00086   0.00005
 203        6D 0       -0.00010   0.00048   0.00000   0.00002   0.00000
 204        6D+1       -0.00001  -0.00003   0.00000   0.00000  -0.00002
 205        6D-1        0.00002   0.00005   0.00000   0.00001  -0.00001
 206        6D+2       -0.00010   0.00056   0.00001   0.00003   0.00019
 207        6D-2       -0.00015   0.00086   0.00000   0.00005  -0.00010
 208 13  C  1S         -0.00001   0.00103   0.02082   0.01069   0.41731
 209        2S          0.00003   0.00091   0.01717   0.00897   0.34343
 210        2PX        -0.00004   0.00017  -0.00003   0.00004  -0.00013
 211        2PY         0.00012   0.00040  -0.00010  -0.00015  -0.00009
 212        2PZ         0.00000  -0.00004   0.00003  -0.00002   0.00029
 213        3S         -0.00018  -0.00036   0.00085  -0.00083   0.01767
 214        3PX         0.00017  -0.00016   0.00031  -0.00052   0.00294
 215        3PY        -0.00046  -0.00081   0.00037   0.00084  -0.00085
 216        3PZ         0.00001   0.00011  -0.00002   0.00011   0.00026
 217        4S          0.00532   0.01494   0.01156   0.00892  -0.03363
 218        4PX         0.00571   0.00691   0.00465   0.00478  -0.00773
 219        4PY        -0.00174   0.00230  -0.00050  -0.00115  -0.00048
 220        4PZ        -0.00095   0.00148   0.00044   0.00024  -0.00458
 221        5S         -0.00674   0.03076   0.01666   0.00757   0.00048
 222        5PX        -0.00112   0.00648   0.00156   0.00208   0.00005
 223        5PY        -0.00047  -0.00901  -0.00894  -0.00101  -0.00993
 224        5PZ        -0.00078   0.00055   0.00051   0.00036  -0.00018
 225        6D 0        0.00000   0.00033   0.00008   0.00008  -0.00054
 226        6D+1       -0.00004   0.00005  -0.00001  -0.00004  -0.00002
 227        6D-1       -0.00008   0.00010  -0.00004  -0.00002  -0.00011
 228        6D+2        0.00037   0.00024   0.00016   0.00013  -0.00009
 229        6D-2       -0.00009  -0.00091   0.00030   0.00049  -0.00074
 230 14  H  1S         -0.00017  -0.00008  -0.00002  -0.00011   0.00007
 231        2S          0.00113   0.00035   0.00002   0.00014   0.00090
 232        3S          0.00153   0.00157   0.00128   0.00126   0.00058
 233 15  H  1S         -0.00017  -0.00008   0.00001  -0.00011  -0.00005
 234        2S          0.00113   0.00035   0.00000   0.00014  -0.00111
 235        3S          0.00153   0.00157  -0.00117   0.00136  -0.00105
 236 16  H  1S          0.00001   0.00003   0.00016   0.00008  -0.00009
 237        2S         -0.00025  -0.00042   0.00023  -0.00006   0.00008
 238        3S          0.00010   0.00029  -0.00082   0.00062   0.00155
 239 17  H  1S          0.00004   0.00011  -0.00024  -0.00004  -0.00025
 240        2S         -0.00018  -0.00092   0.00177  -0.00011   0.00406
 241        3S         -0.00029  -0.00002  -0.00004  -0.00072   0.00391
 242 18  H  1S          0.00004   0.00011   0.00023  -0.00006   0.00019
 243        2S         -0.00018  -0.00092  -0.00178   0.00003  -0.00375
 244        3S         -0.00029  -0.00002  -0.00001  -0.00072  -0.00378
 245 19  H  1S          0.00000  -0.00004  -0.00055  -0.00038   0.00012
 246        2S         -0.00023   0.00005   0.00439   0.00273  -0.00125
 247        3S         -0.00027   0.00002   0.00418   0.00549  -0.00245
 248 20  H  1S          0.00000  -0.00004   0.00051  -0.00043  -0.00010
 249        2S         -0.00023   0.00005  -0.00416   0.00307   0.00102
 250        3S         -0.00027   0.00002  -0.00374   0.00580   0.00235
 251 21  H  1S          0.00000   0.00001   0.00028  -0.00014   0.00002
 252        2S          0.00001   0.00001  -0.00115   0.00013  -0.00020
 253        3S          0.00009   0.00005  -0.00132  -0.00055  -0.00050
 254 22  H  1S          0.00000   0.00001  -0.00029  -0.00012   0.00001
 255        2S          0.00001   0.00001   0.00116   0.00004   0.00001
 256        3S          0.00009   0.00005   0.00127  -0.00065   0.00052
 257 23  H  1S          0.00004  -0.00021  -0.00004   0.00004   0.00053
 258        2S         -0.00004  -0.00027   0.00010  -0.00072  -0.00400
 259        3S          0.00193  -0.00233   0.00008   0.00009  -0.00380
 260 24  H  1S          0.00007  -0.00056   0.00000   0.00006  -0.00002
 261        2S         -0.00174   0.00378  -0.00002  -0.00048  -0.00018
 262        3S         -0.00407   0.00671   0.00001   0.00012  -0.00056
 263 25  H  1S          0.00004  -0.00021   0.00004   0.00004  -0.00061
 264        2S         -0.00004  -0.00027  -0.00015  -0.00071   0.00466
 265        3S          0.00193  -0.00233  -0.00007   0.00009   0.00485
 266 26  H  1S          0.00017   0.00028   0.00000  -0.00004   0.00001
 267        2S          0.00081   0.00025   0.00001   0.00033  -0.00002
 268        3S         -0.00146  -0.00628  -0.00008  -0.00203  -0.00005
                           6         7         8         9        10
                           O         O         O         O         O
     Eigenvalues --   -10.13525 -10.13438 -10.13407 -10.13407 -10.13385
   1 1   C  1S         -0.01783  -0.08681  -0.07937  -0.04198  -0.04784
   2        2S         -0.01456  -0.07117  -0.06511  -0.03446  -0.03931
   3        2PX        -0.00011   0.00058   0.00038   0.00004  -0.00001
   4        2PY         0.00029  -0.00048  -0.00034   0.00040   0.00023
   5        2PZ        -0.00003  -0.00006  -0.00010  -0.00003  -0.00009
   6        3S         -0.00157  -0.00442  -0.00425  -0.00176  -0.00240
   7        3PX         0.00042  -0.00346  -0.00193  -0.00033   0.00004
   8        3PY        -0.00142   0.00231   0.00154  -0.00121  -0.00035
   9        3PZ         0.00009  -0.00002   0.00012   0.00002   0.00018
  10        4S          0.00933   0.00657   0.02825   0.00299   0.02227
  11        4PX         0.00193   0.00359   0.01121  -0.00320   0.01086
  12        4PY         0.00436  -0.00282   0.00558   0.00211   0.00471
  13        4PZ         0.00075   0.00137   0.00202   0.00166   0.00332
  14        5S          0.06664   0.00318   0.01601   0.02999   0.04965
  15        5PX         0.00598   0.00201   0.00765   0.00189   0.00904
  16        5PY         0.00837  -0.00019  -0.00346   0.00401   0.00624
  17        5PZ         0.00030   0.00059   0.00094   0.00093   0.00143
  18        6D 0        0.00009   0.00078   0.00066   0.00040   0.00039
  19        6D+1       -0.00003   0.00003   0.00010   0.00004   0.00004
  20        6D-1       -0.00001  -0.00001  -0.00007   0.00004   0.00015
  21        6D+2        0.00081  -0.00136  -0.00074   0.00075   0.00057
  22        6D-2        0.00000   0.00174   0.00122  -0.00023   0.00001
  23 2   C  1S          0.11350  -0.06352  -0.01845   0.37442   0.37611
  24        2S          0.09366  -0.05212  -0.01517   0.30801   0.30939
  25        2PX        -0.00023   0.00001  -0.00001   0.00044  -0.00004
  26        2PY         0.00050  -0.00009   0.00002   0.00001  -0.00022
  27        2PZ         0.00001  -0.00002   0.00000   0.00014   0.00026
  28        3S          0.00345  -0.00359  -0.00080   0.01564   0.01685
  29        3PX         0.00102  -0.00019   0.00033  -0.00225  -0.00147
  30        3PY        -0.00227   0.00075   0.00031   0.00140   0.00146
  31        3PZ         0.00020  -0.00005  -0.00005   0.00033  -0.00001
  32        4S          0.00951   0.00263  -0.00423  -0.02388  -0.05378
  33        4PX        -0.00518   0.00105  -0.00403   0.00611  -0.01668
  34        4PY         0.01305  -0.00273   0.01177  -0.00359  -0.00340
  35        4PZ        -0.00038   0.00149   0.00091  -0.00472  -0.00952
  36        5S         -0.03330  -0.00101  -0.01269  -0.04278  -0.12741
  37        5PX        -0.00134   0.00029   0.01297   0.00409   0.00455
  38        5PY         0.03194  -0.00386  -0.02249   0.00551  -0.01934
  39        5PZ        -0.00015  -0.00031   0.00034  -0.00162  -0.00298
  40        6D 0        0.00021   0.00019   0.00006  -0.00091  -0.00109
  41        6D+1       -0.00002  -0.00005   0.00007   0.00013  -0.00012
  42        6D-1        0.00012  -0.00001   0.00005   0.00002  -0.00005
  43        6D+2       -0.00068   0.00032   0.00030  -0.00050  -0.00028
  44        6D-2        0.00060   0.00029   0.00012  -0.00175  -0.00109
  45 3   C  1S          0.13484  -0.06354   0.11073   0.35979  -0.37442
  46        2S          0.11124  -0.05213   0.09108   0.29598  -0.30800
  47        2PX        -0.00030   0.00007  -0.00005  -0.00024  -0.00021
  48        2PY         0.00061  -0.00005  -0.00011  -0.00035   0.00009
  49        2PZ         0.00003  -0.00002   0.00003   0.00013  -0.00025
  50        3S          0.00460  -0.00359   0.00466   0.01502  -0.01678
  51        3PX         0.00135  -0.00052   0.00044  -0.00007   0.00044
  52        3PY        -0.00273   0.00056   0.00076   0.00255  -0.00202
  53        3PZ         0.00018  -0.00005   0.00013   0.00030   0.00001
  54        4S          0.00533   0.00267  -0.00183  -0.02441   0.05368
  55        4PX        -0.00710   0.00174   0.00740  -0.00214  -0.01191
  56        4PY         0.01461  -0.00240  -0.01120  -0.00441  -0.01219
  57        4PZ        -0.00147   0.00149  -0.00206  -0.00439   0.00950
  58        5S         -0.03278  -0.00089   0.00167  -0.04513   0.12721
  59        5PX        -0.02836   0.00304  -0.01320  -0.00364  -0.01382
  60        5PY         0.01563  -0.00224   0.02227  -0.00619   0.01430
  61        5PZ        -0.00065  -0.00031  -0.00073  -0.00150   0.00297
  62        6D 0        0.00030   0.00019  -0.00028  -0.00087   0.00109
  63        6D+1       -0.00007   0.00003   0.00005  -0.00010  -0.00011
  64        6D-1        0.00011   0.00003   0.00000  -0.00010  -0.00007
  65        6D+2        0.00114   0.00013  -0.00033  -0.00135   0.00087
  66        6D-2       -0.00024   0.00041  -0.00060  -0.00106   0.00069
  67 4   C  1S         -0.02379  -0.08653   0.06681  -0.06055   0.04771
  68        2S         -0.01946  -0.07094   0.05479  -0.04970   0.03920
  69        2PX        -0.00019   0.00009  -0.00016  -0.00032   0.00019
  70        2PY         0.00028  -0.00074   0.00054   0.00005  -0.00013
  71        2PZ        -0.00003  -0.00006   0.00008  -0.00006   0.00009
  72        3S         -0.00186  -0.00440   0.00369  -0.00277   0.00239
  73        3PX         0.00094  -0.00007   0.00053   0.00110  -0.00027
  74        3PY        -0.00122   0.00415  -0.00249   0.00024   0.00022
  75        3PZ         0.00009  -0.00002  -0.00011   0.00005  -0.00018
  76        4S          0.01203   0.00646  -0.02665   0.00997  -0.02225
  77        4PX        -0.00570   0.00047   0.01041  -0.00273   0.00984
  78        4PY         0.00007  -0.00452   0.00715   0.00210   0.00659
  79        4PZ         0.00128   0.00136  -0.00155   0.00213  -0.00331
  80        5S          0.06681   0.00310  -0.00810   0.03323  -0.04949
  81        5PX        -0.01069  -0.00092   0.00011  -0.00461   0.01012
  82        5PY         0.00047  -0.00176   0.00819  -0.00150   0.00422
  83        5PZ         0.00058   0.00059  -0.00068   0.00114  -0.00142
  84        6D 0        0.00011   0.00078  -0.00054   0.00055  -0.00039
  85        6D+1        0.00000  -0.00001  -0.00002  -0.00005   0.00015
  86        6D-1        0.00004  -0.00003   0.00011  -0.00004  -0.00005
  87        6D+2       -0.00033   0.00214  -0.00151  -0.00015   0.00023
  88        6D-2        0.00083  -0.00052   0.00031   0.00053  -0.00052
  89 5   C  1S         -0.01791   0.38094  -0.37504   0.10825  -0.06050
  90        2S         -0.01461   0.31351  -0.30856   0.08917  -0.04978
  91        2PX        -0.00004  -0.00024  -0.00030  -0.00001  -0.00009
  92        2PY         0.00009  -0.00052  -0.00002  -0.00007  -0.00006
  93        2PZ        -0.00002   0.00018  -0.00027   0.00008  -0.00006
  94        3S         -0.00174   0.01511  -0.01565   0.00367  -0.00269
  95        3PX         0.00040  -0.00023   0.00129  -0.00003   0.00038
  96        3PY        -0.00088   0.00389  -0.00185   0.00038   0.00040
  97        3PZ         0.00005   0.00032  -0.00002  -0.00001   0.00006
  98        4S         -0.00092  -0.01657   0.04520  -0.00598   0.02054
  99        4PX        -0.00079   0.00004  -0.01496   0.00220  -0.00670
 100        4PY         0.00023  -0.00398   0.00728  -0.00065   0.00564
 101        4PZ         0.00032  -0.00345   0.00594  -0.00089   0.00181
 102        5S         -0.01393  -0.00738   0.05952  -0.01980   0.05287
 103        5PX         0.00029   0.00083  -0.00915   0.00151  -0.00894
 104        5PY        -0.00237  -0.00082   0.00787  -0.00354   0.00478
 105        5PZ        -0.00025  -0.00066   0.00189  -0.00065   0.00076
 106        6D 0        0.00000  -0.00066   0.00103  -0.00021   0.00021
 107        6D+1        0.00001  -0.00001  -0.00014  -0.00002   0.00000
 108        6D-1       -0.00001  -0.00006   0.00002  -0.00001   0.00005
 109        6D+2        0.00025  -0.00175   0.00076  -0.00024  -0.00017
 110        6D-2        0.00003  -0.00004  -0.00103   0.00007  -0.00017
 111 6   C  1S         -0.01595   0.38231   0.38881   0.01221   0.06051
 112        2S         -0.01300   0.31464   0.31992   0.01015   0.04978
 113        2PX        -0.00005   0.00057  -0.00016   0.00011  -0.00010
 114        2PY         0.00008  -0.00008  -0.00024   0.00003  -0.00004
 115        2PZ        -0.00002   0.00018   0.00028   0.00001   0.00006
 116        3S         -0.00166   0.01517   0.01602  -0.00031   0.00269
 117        3PX         0.00046  -0.00315  -0.00090  -0.00009   0.00054
 118        3PY        -0.00076   0.00230   0.00207  -0.00029   0.00010
 119        3PZ         0.00005   0.00032   0.00002  -0.00002  -0.00006
 120        4S          0.00038  -0.01674  -0.04521   0.00544  -0.02053
 121        4PX        -0.00008   0.00331  -0.00211  -0.00014   0.00110
 122        4PY         0.00114  -0.00225  -0.01654   0.00198  -0.00869
 123        4PZ         0.00048  -0.00347  -0.00597   0.00062  -0.00181
 124        5S         -0.01433  -0.00763  -0.06251  -0.00427  -0.05293
 125        5PX         0.00269   0.00024   0.00213   0.00168  -0.00082
 126        5PY        -0.00158  -0.00119  -0.01237  -0.00009  -0.01011
 127        5PZ        -0.00009  -0.00066  -0.00199  -0.00016  -0.00076
 128        6D 0        0.00001  -0.00067  -0.00105   0.00005  -0.00021
 129        6D+1        0.00000   0.00006  -0.00005   0.00004   0.00004
 130        6D-1       -0.00002  -0.00003  -0.00013   0.00004  -0.00003
 131        6D+2       -0.00009   0.00069   0.00125  -0.00015   0.00009
 132        6D-2        0.00022  -0.00162  -0.00030  -0.00012   0.00022
 133 7   H  1S         -0.00010   0.00007   0.00036  -0.00005   0.00007
 134        2S          0.00016   0.00054  -0.00044  -0.00018  -0.00050
 135        3S          0.00069   0.00163  -0.00176   0.00079  -0.00146
 136 8   H  1S         -0.00010   0.00006  -0.00036   0.00004  -0.00007
 137        2S          0.00019   0.00054   0.00038  -0.00028   0.00049
 138        3S          0.00064   0.00163   0.00189   0.00032   0.00146
 139 9   H  1S         -0.00015  -0.00020   0.00025  -0.00011   0.00018
 140        2S          0.00004  -0.00035  -0.00094  -0.00068  -0.00095
 141        3S          0.00134   0.00066  -0.00283   0.00009  -0.00267
 142 10  C  1S          0.41269   0.03348  -0.03765  -0.11934   0.10730
 143        2S          0.33977   0.02758  -0.03093  -0.09796   0.08816
 144        2PX         0.00004   0.00003   0.00000   0.00008  -0.00009
 145        2PY         0.00001   0.00006  -0.00012  -0.00053   0.00046
 146        2PZ         0.00034   0.00000  -0.00002  -0.00012   0.00012
 147        3S          0.01688   0.00087  -0.00157  -0.00574   0.00430
 148        3PX        -0.00008  -0.00015   0.00004  -0.00030   0.00040
 149        3PY        -0.00201  -0.00027   0.00070   0.00332  -0.00246
 150        3PZ         0.00005   0.00007  -0.00004   0.00007  -0.00012
 151        4S         -0.04707   0.00198   0.01117   0.01396  -0.00879
 152        4PX         0.01252  -0.00092  -0.00205   0.00069   0.00393
 153        4PY         0.01341  -0.00180  -0.00331  -0.00560   0.00255
 154        4PZ        -0.00498  -0.00075   0.00091   0.00200  -0.00222
 155        5S         -0.02336   0.00022  -0.01920   0.03974  -0.06816
 156        5PX         0.00991   0.00053  -0.00280  -0.00174   0.00124
 157        5PY         0.00016  -0.00097   0.00438  -0.00693   0.01367
 158        5PZ        -0.00078   0.00011   0.00050   0.00059  -0.00104
 159        6D 0       -0.00039  -0.00014   0.00027   0.00081  -0.00083
 160        6D+1        0.00013   0.00001   0.00001   0.00001  -0.00006
 161        6D-1       -0.00002   0.00003  -0.00001  -0.00005   0.00014
 162        6D+2       -0.00059  -0.00021   0.00054   0.00163  -0.00148
 163        6D-2       -0.00020   0.00000   0.00008   0.00034  -0.00029
 164 11  C  1S         -0.00140  -0.00013   0.00007   0.00052   0.00000
 165        2S         -0.00104  -0.00012   0.00006   0.00051   0.00000
 166        2PX         0.00025   0.00003   0.00000  -0.00002  -0.00003
 167        2PY        -0.00036  -0.00006   0.00001   0.00004  -0.00002
 168        2PZ        -0.00008   0.00000   0.00000   0.00003   0.00000
 169        3S         -0.00145   0.00024  -0.00010  -0.00083   0.00000
 170        3PX        -0.00068  -0.00007  -0.00015  -0.00028   0.00055
 171        3PY         0.00107   0.00014   0.00000   0.00055   0.00030
 172        3PZ         0.00022   0.00001  -0.00001  -0.00009   0.00000
 173        4S          0.03068  -0.00180  -0.00025  -0.00205   0.00000
 174        4PX         0.00991  -0.00082  -0.00196   0.00020   0.00275
 175        4PY        -0.01658   0.00149  -0.00106   0.00020   0.00150
 176        4PZ         0.00466  -0.00009   0.00013   0.00106   0.00000
 177        5S          0.00400   0.00781  -0.00322  -0.02554  -0.00006
 178        5PX        -0.00172   0.00056  -0.00279  -0.00240   0.00019
 179        5PY         0.00493  -0.00103  -0.00071   0.00513   0.00012
 180        5PZ         0.00093  -0.00016   0.00005   0.00038   0.00000
 181        6D 0        0.00030   0.00007  -0.00002  -0.00018   0.00000
 182        6D+1        0.00006  -0.00002  -0.00001   0.00002   0.00005
 183        6D-1       -0.00008   0.00003  -0.00001  -0.00003   0.00003
 184        6D+2       -0.00036   0.00002  -0.00006  -0.00034   0.00009
 185        6D-2       -0.00036   0.00003  -0.00006  -0.00053  -0.00006
 186 12  O  1S          0.00001   0.00000   0.00000   0.00000   0.00000
 187        2S          0.00005   0.00000   0.00000   0.00003   0.00000
 188        2PX         0.00005   0.00000   0.00001   0.00003  -0.00001
 189        2PY        -0.00008   0.00000   0.00000  -0.00006   0.00000
 190        2PZ         0.00000   0.00001   0.00000  -0.00002   0.00000
 191        3S         -0.00034   0.00006  -0.00002  -0.00017   0.00000
 192        3PX        -0.00025  -0.00001  -0.00005  -0.00018   0.00003
 193        3PY         0.00044   0.00001   0.00003   0.00034   0.00002
 194        3PZ         0.00002  -0.00003   0.00001   0.00006   0.00000
 195        4S          0.00106  -0.00058  -0.00007  -0.00056   0.00000
 196        4PX        -0.00015  -0.00006   0.00030   0.00007  -0.00042
 197        4PY         0.00006   0.00011   0.00013  -0.00021  -0.00023
 198        4PZ        -0.00045   0.00009  -0.00004  -0.00030   0.00000
 199        5S          0.01183   0.00037   0.00037   0.00295   0.00001
 200        5PX         0.00248   0.00006   0.00027   0.00044   0.00009
 201        5PY        -0.00470  -0.00010   0.00001  -0.00087   0.00005
 202        5PZ         0.00053   0.00064   0.00001   0.00011   0.00000
 203        6D 0        0.00004   0.00000   0.00001   0.00005   0.00000
 204        6D+1       -0.00001   0.00000   0.00000   0.00001   0.00000
 205        6D-1        0.00002   0.00001   0.00000  -0.00001   0.00000
 206        6D+2        0.00008   0.00000   0.00003   0.00005  -0.00004
 207        6D-2        0.00017   0.00000   0.00000   0.00009   0.00003
 208 13  C  1S          0.33714   0.03344   0.00696  -0.12431  -0.10771
 209        2S          0.27761   0.02755   0.00574  -0.10205  -0.08850
 210        2PX         0.00000  -0.00006   0.00000   0.00042   0.00034
 211        2PY        -0.00001   0.00001  -0.00003  -0.00036  -0.00032
 212        2PZ         0.00029   0.00000  -0.00001  -0.00012  -0.00012
 213        3S          0.01367   0.00087   0.00010  -0.00593  -0.00433
 214        3PX         0.00118   0.00031  -0.00005  -0.00269  -0.00186
 215        3PY        -0.00087  -0.00002   0.00017   0.00206   0.00168
 216        3PZ         0.00000   0.00007   0.00005   0.00005   0.00012
 217        4S         -0.04126   0.00195  -0.00739   0.01623   0.00884
 218        4PX        -0.01687   0.00200  -0.00271   0.00514   0.00429
 219        4PY        -0.00323  -0.00020  -0.00083  -0.00353   0.00190
 220        4PZ        -0.00416  -0.00075  -0.00039   0.00215   0.00222
 221        5S         -0.02395   0.00035   0.02838   0.03348   0.06831
 222        5PX        -0.00563   0.00054   0.00376   0.00597   0.01219
 223        5PY        -0.00641  -0.00099  -0.00514  -0.00103  -0.00638
 224        5PZ        -0.00076   0.00011  -0.00034   0.00069   0.00104
 225        6D 0       -0.00029  -0.00014  -0.00006   0.00085   0.00084
 226        6D+1       -0.00005  -0.00003   0.00001   0.00004   0.00008
 227        6D-1       -0.00010   0.00001   0.00001  -0.00004  -0.00013
 228        6D+2        0.00008   0.00009   0.00006  -0.00039  -0.00035
 229        6D-2       -0.00049  -0.00019  -0.00010   0.00170   0.00147
 230 14  H  1S          0.00011  -0.00002   0.00003  -0.00012  -0.00010
 231        2S         -0.00111   0.00026  -0.00026  -0.00047   0.00024
 232        3S         -0.00245   0.00076  -0.00049   0.00056   0.00071
 233 15  H  1S          0.00012  -0.00002  -0.00005  -0.00011   0.00009
 234        2S         -0.00091   0.00026   0.00014  -0.00051  -0.00025
 235        3S         -0.00229   0.00076   0.00061   0.00042  -0.00071
 236 16  H  1S         -0.00014  -0.00021  -0.00027  -0.00005  -0.00018
 237        2S          0.00002  -0.00034   0.00075  -0.00090   0.00095
 238        3S          0.00105   0.00067   0.00277  -0.00062   0.00266
 239 17  H  1S         -0.00026   0.00029   0.00008  -0.00063  -0.00027
 240        2S          0.00119  -0.00198  -0.00051   0.00364   0.00486
 241        3S          0.00027  -0.00021  -0.00119   0.00605   0.01121
 242 18  H  1S         -0.00030   0.00029  -0.00024  -0.00059   0.00026
 243        2S          0.00197  -0.00198   0.00140   0.00342  -0.00484
 244        3S          0.00104  -0.00021   0.00266   0.00562  -0.01118
 245 19  H  1S          0.00010   0.00006  -0.00008   0.00003  -0.00012
 246        2S         -0.00105  -0.00067  -0.00068  -0.00080  -0.00078
 247        3S         -0.00031  -0.00206  -0.00302  -0.00254  -0.00508
 248 20  H  1S          0.00012   0.00006   0.00008   0.00001   0.00012
 249        2S         -0.00127  -0.00067   0.00046  -0.00095   0.00077
 250        3S         -0.00079  -0.00205   0.00230  -0.00323   0.00507
 251 21  H  1S          0.00012  -0.00057   0.00027  -0.00001  -0.00002
 252        2S         -0.00094   0.00307  -0.00342   0.00009  -0.00065
 253        3S          0.00014   0.00388  -0.00774   0.00201  -0.00239
 254 22  H  1S          0.00012  -0.00057  -0.00026   0.00005   0.00002
 255        2S         -0.00096   0.00309   0.00333  -0.00076   0.00065
 256        3S          0.00004   0.00391   0.00798   0.00003   0.00239
 257 23  H  1S         -0.00042  -0.00007   0.00003   0.00007   0.00003
 258        2S          0.00372   0.00024  -0.00032  -0.00128   0.00025
 259        3S          0.00572   0.00067  -0.00160  -0.00298   0.00382
 260 24  H  1S         -0.00020  -0.00001   0.00003   0.00023   0.00000
 261        2S         -0.00180   0.00010  -0.00017  -0.00133   0.00000
 262        3S         -0.00564   0.00004   0.00002   0.00015   0.00000
 263 25  H  1S         -0.00031  -0.00007  -0.00001   0.00008  -0.00003
 264        2S          0.00286   0.00024  -0.00001  -0.00132  -0.00026
 265        3S          0.00486   0.00067   0.00082  -0.00327  -0.00384
 266 26  H  1S          0.00008   0.00001   0.00000  -0.00003   0.00000
 267        2S         -0.00016  -0.00008   0.00005   0.00039   0.00000
 268        3S         -0.00049  -0.00111  -0.00014  -0.00111   0.00000
                          11        12        13        14        15
                           O         O         O         O         O
     Eigenvalues --    -1.14635  -0.94436  -0.87783  -0.84906  -0.77680
   1 1   C  1S         -0.00032  -0.03508   0.03532   0.05447   0.03752
[...]
    36  Bq   0.000000
    37  Bq   0.000000
    38  Bq   0.000000
    39  Bq   0.000000
    40  Bq   0.000000
    41  Bq   0.000000
    42  Bq   0.000000
    43  Bq   0.000000
    44  Bq   0.000000
    45  Bq   0.000000
    46  Bq   0.000000
    47  Bq   0.000000
    48  Bq   0.000000
    49  Bq   0.000000
    50  Bq   0.000000
    51  Bq   0.000000
    52  Bq   0.000000
    53  Bq   0.000000
    54  Bq   0.000000
    55  Bq   0.000000
    56  Bq   0.000000
    57  Bq   0.000000
    58  Bq   0.000000
    59  Bq   0.000000
    60  Bq   0.000000
    61  Bq   0.000000
    62  Bq   0.000000
    63  Bq   0.000000
    64  Bq   0.000000
    65  Bq   0.000000
    66  Bq   0.000000
 Electronic spatial extent (au):  <R**2>=           1775.9501
 Charge=              0.0000 electrons
 Dipole moment (field-independent basis, Debye):
    X=              0.4143    Y=             -0.7603    Z=              5.4047  Tot=              5.4736
 Quadrupole moment (field-independent basis, Debye-Ang):
   XX=            -65.9879   YY=            -68.1999   ZZ=            -61.1819
   XY=              1.7149   XZ=              0.4853   YZ=             -0.8906
 Traceless Quadrupole moment (field-independent basis, Debye-Ang):
   XX=             -0.8646   YY=             -3.0767   ZZ=              3.9413
   XY=              1.7149   XZ=              0.4853   YZ=             -0.8906
 Octapole moment (field-independent basis, Debye-Ang**2):
  XXX=            -85.4940  YYY=            152.3072  ZZZ=            -14.9396  XYY=            -25.3034
  XXY=             51.0058  XXZ=              9.1707  XZZ=            -30.9751  YZZ=             56.8395
  YYZ=             22.3206  XYZ=            -10.1932
 Hexadecapole moment (field-independent basis, Debye-Ang**3):
 XXXX=           -835.7796 YYYY=          -1555.4875 ZZZZ=           -103.3637 XXXY=            273.1103
 XXXZ=              8.7390 YYYX=            284.7882 YYYZ=            -13.1974 ZZZX=             -8.9798
 ZZZY=             16.4776 XXYY=           -402.0691 XXZZ=           -160.3055 YYZZ=           -266.7037
 XXYZ=             -4.5459 YYXZ=              0.9299 ZZXY=             82.4764
 N-N= 6.124366744200D+02 E-N=-2.221505028195D+03  KE= 4.311862222180D+02
 Orbital energies and kinetic energies (alpha):
                                 1                 2
   1         O               -19.124077         29.119670
   2         O               -10.198024         15.944951
   3         O               -10.135852         15.940379
   4         O               -10.135838         15.943256
   5         O               -10.135252         15.940651
   6         O               -10.135249         15.942199
   7         O               -10.134380         15.942605
   8         O               -10.134072         15.944712
   9         O               -10.134071         15.941925
  10         O               -10.133855         15.943479
  11         O                -1.146355          2.500171
  12         O                -0.944363          1.327133
  13         O                -0.877829          1.400371
  14         O                -0.849058          1.428031
  15         O                -0.776801          1.500318
  16         O                -0.744095          1.532070
  17         O                -0.642980          1.612590
  18         O                -0.625687          1.440353
  19         O                -0.615626          1.609826
  20         O                -0.586879          1.430240
  21         O                -0.548712          1.236793
  22         O                -0.528494          1.073117
  23         O                -0.516522          1.434248
  24         O                -0.483502          1.306238
  25         O                -0.458189          1.112582
  26         O                -0.457329          1.282742
  27         O                -0.444909          1.430121
  28         O                -0.425064          1.418289
  29         O                -0.416670          1.785873
  30         O                -0.398773          1.345118
  31         O                -0.389213          1.281323
  32         O                -0.374530          1.408312
  33         O                -0.340344          1.474250
  34         O                -0.327408          1.422562
  35         O                -0.281651          2.087161
  36         O                -0.250861          1.471970
  37         O                -0.236295          1.401649
  38         O                -0.206063          1.678012
  39         O                -0.151759          1.557821
  40         V                -0.059223          0.525748
  41         V                -0.021775          0.520823
  42         V                 0.006026          0.296923
  43         V                 0.011769          0.358127
  44         V                 0.026266          0.336527
  45         V                 0.034906          0.277184
  46         V                 0.035822          0.359456
  47         V                 0.042311          0.238289
  48         V                 0.047001          0.343350
  49         V                 0.055277          0.365754
  50         V                 0.063600          0.322623
  51         V                 0.073178          0.307396
  52         V                 0.080188          0.322422
  53         V                 0.081851          0.349205
  54         V                 0.087467          0.281348
  55         V                 0.099763          0.360724
  56         V                 0.103172          0.301281
  57         V                 0.106243          0.302015
  58         V                 0.120578          0.386439
  59         V                 0.136439          0.493575
  60         V                 0.136566          0.381369
  61         V                 0.137399          0.346568
  62         V                 0.148150          0.582827
  63         V                 0.150007          0.500357
  64         V                 0.152189          0.549696
  65         V                 0.161787          0.719003
  66         V                 0.166430          0.599321
  67         V                 0.172919          0.708696
  68         V                 0.180448          0.597594
  69         V                 0.181457          0.854109
  70         V                 0.188273          0.596331
  71         V                 0.195884          0.593588
  72         V                 0.199171          0.652662
  73         V                 0.204459          0.736340
  74         V                 0.208269          0.558107
  75         V                 0.209753          1.071090
  76         V                 0.214416          0.578062
  77         V                 0.216576          0.745496
  78         V                 0.233042          0.657682
  79         V                 0.233821          0.721178
  80         V                 0.238156          0.561393
  81         V                 0.241540          1.130137
  82         V                 0.249281          0.777235
  83         V                 0.253962          0.951738
  84         V                 0.261165          1.279253
  85         V                 0.264293          0.946073
  86         V                 0.275605          0.512222
  87         V                 0.281864          0.731012
  88         V                 0.296198          0.709943
  89         V                 0.299701          1.155445
  90         V                 0.306699          0.797209
  91         V                 0.308309          0.787560
  92         V                 0.316014          0.913608
  93         V                 0.326914          0.939875
  94         V                 0.336116          0.955708
  95         V                 0.338857          0.835123
  96         V                 0.352788          1.026543
  97         V                 0.355683          0.867261
  98         V                 0.359393          0.895744
  99         V                 0.369126          1.310074
 100         V                 0.374257          1.111606
 101         V                 0.403610          1.201298
 102         V                 0.404377          1.302474
 103         V                 0.422553          1.182653
 104         V                 0.426984          1.740568
 105         V                 0.442453          1.149364
 106         V                 0.459129          1.111722
 107         V                 0.465861          1.446331
 108         V                 0.485562          1.212567
 109         V                 0.494532          1.260798
 110         V                 0.509808          1.350286
 111         V                 0.517106          1.329433
 112         V                 0.538023          1.274215
 113         V                 0.558896          1.540825
 114         V                 0.570219          1.760436
 115         V                 0.602443          1.594071
 116         V                 0.616590          1.523423
 117         V                 0.658735          2.106099
 118         V                 0.664007          1.996523
 119         V                 0.668350          1.840680
 120         V                 0.669856          1.704881
 121         V                 0.674345          1.913787
 122         V                 0.687786          1.720254
 123         V                 0.688813          1.817303
 124         V                 0.706562          2.059087
 125         V                 0.721578          2.173643
 126         V                 0.729465          1.910215
 127         V                 0.741010          1.956013
 128         V                 0.753206          1.951583
 129         V                 0.762867          2.110488
 130         V                 0.771879          2.141232
 131         V                 0.779909          2.048570
 132         V                 0.780836          2.601837
 133         V                 0.802515          1.992830
 134         V                 0.812612          2.254457
 135         V                 0.821188          2.070101
 136         V                 0.822058          1.734595
 137         V                 0.839227          1.963089
 138         V                 0.840959          2.312120
 139         V                 0.857062          2.055553
 140         V                 0.876271          1.866503
 141         V                 0.877585          2.889886
 142         V                 0.884620          2.480888
 143         V                 0.901441          2.449520
 144         V                 0.905801          1.987970
 145         V                 0.931059          1.801178
 146         V                 0.962926          1.961473
 147         V                 0.981441          1.626342
 148         V                 0.995926          2.111034
 149         V                 1.008122          2.062246
 150         V                 1.019562          2.203376
 151         V                 1.044549          1.805455
 152         V                 1.068785          2.412998
 153         V                 1.093496          2.035955
 154         V                 1.103695          2.190127
 155         V                 1.130550          2.507342
 156         V                 1.130725          2.069714
 157         V                 1.152160          2.436147
 158         V                 1.157369          2.212026
 159         V                 1.179172          2.432933
 160         V                 1.192655          2.357522
 161         V                 1.226215          2.558878
 162         V                 1.234443          2.428677
 163         V                 1.260345          2.503423
 164         V                 1.286464          2.401559
 165         V                 1.324901          2.523401
 166         V                 1.330180          2.397099
 167         V                 1.350000          2.632061
 168         V                 1.389329          2.652807
 169         V                 1.391019          2.580497
 170         V                 1.484876          2.595015
 171         V                 1.496401          2.563542
 172         V                 1.570963          2.726780
 173         V                 1.572990          2.740869
 174         V                 1.586968          2.695915
 175         V                 1.590723          2.710887
 176         V                 1.613179          2.730328
 177         V                 1.637620          2.895489
 178         V                 1.660387          2.919210
 179         V                 1.711910          3.096000
 180         V                 1.718540          3.272179
 181         V                 1.726035          2.862493
 182         V                 1.744640          2.998386
 183         V                 1.787412          3.076192
 184         V                 1.807391          3.189885
 185         V                 1.824657          3.388096
 186         V                 1.859807          3.638094
 187         V                 1.872212          3.139883
 188         V                 1.900157          3.265626
 189         V                 1.925126          3.319818
 190         V                 1.939321          3.311748
 191         V                 1.950016          3.304207
 192         V                 1.996762          3.638437
 193         V                 2.015585          3.552263
 194         V                 2.051064          3.783066
 195         V                 2.064304          3.687833
 196         V                 2.109483          4.065126
 197         V                 2.165467          3.972734
 198         V                 2.169662          3.639168
 199         V                 2.229168          4.275731
 200         V                 2.278446          3.436979
 201         V                 2.311911          4.100735
 202         V                 2.327623          4.193207
 203         V                 2.343538          4.191975
 204         V                 2.368059          4.366419
 205         V                 2.379305          4.520384
 206         V                 2.461249          4.471778
 207         V                 2.492267          4.649271
 208         V                 2.515749          4.832403
 209         V                 2.582173          5.004870
 210         V                 2.613965          5.012511
 211         V                 2.650275          4.845529
 212         V                 2.682474          5.239898
 213         V                 2.688342          5.327291
 214         V                 2.718838          5.244941
 215         V                 2.746343          5.395637
 216         V                 2.794455          4.716647
 217         V                 2.802538          5.721249
 218         V                 2.838103          5.573956
 219         V                 2.853544          5.467298
 220         V                 2.892144          5.444379
 221         V                 2.901287          5.817429
 222         V                 2.913077          5.347568
 223         V                 3.047524          5.634863
 224         V                 3.060771          6.224468
 225         V                 3.088023          6.612979
 226         V                 3.097832          5.908636
 227         V                 3.130637          5.807448
 228         V                 3.183071          6.698114
 229         V                 3.225639          6.181655
 230         V                 3.245719          6.391531
 231         V                 3.271564          6.116097
 232         V                 3.291163          7.037346
 233         V                 3.322956          6.239464
 234         V                 3.382738          6.489050
 235         V                 3.382815          6.760389
 236         V                 3.411285          6.646716
 237         V                 3.474009          6.118768
 238         V                 3.483099          6.070335
 239         V                 3.534256          5.586857
 240         V                 3.598298          7.061007
 241         V                 3.643545          6.398099
 242         V                 3.652092          6.845286
 243         V                 3.692664          7.122319
 244         V                 3.707875          6.717086
 245         V                 3.794242          7.153643
 246         V                 3.803933          6.799896
 247         V                 3.878835          7.379870
 248         V                 3.947389          6.700842
 249         V                 4.021388          7.424267
 250         V                 4.047229          7.306464
 251         V                 4.168746          7.126460
 252         V                 4.222740          7.544500
 253         V                 4.550129          7.684542
 254         V                 4.703882          7.901301
 255         V                 5.169485         11.886044
 256         V                 5.183353         11.950284
 257         V                 5.714988         12.245073
 258         V                23.410810         60.146313
 259         V                23.871051         60.308071
 260         V                23.873371         60.299217
 261         V                23.940167         60.327854
 262         V                23.992996         60.358774
 263         V                24.227587         60.464815
 264         V                24.230356         60.447586
 265         V                24.257673         60.468060
 266         V                24.332876         60.544104
 267         V                50.051747        123.677383
 Total kinetic energy from orbitals= 4.311862222180D+02
 1\1\GINC-HOGWARTS\SP\RB3LYP\6-311+G(d)\C9H16O1\ANUJA\11-Nov-2014\0\\# 
 B3LYP/6-311+G* NMR=GIAO INTEGRAL=(GRID=ULTRAFINE) CPHF=(GRID=FINE) POP
 =FULL SCF(MAXCYCLE=512)\\---------------------------------------------
 ------------- # Center 2\\0,1\C,0,-0.21356,-2.63581,0.\C,0,-0.21356,-1
 .1907,0.\C,0,1.11636,-0.46595,0.\C,0,2.33076,-1.24926,0.\C,0,2.24833,-
 2.5983,0.\C,0,0.96479,-3.29778,0.\H,0,0.978,-4.38296,0.\H,0,3.1531,-3.
 19762,0.\H,0,3.29158,-0.74508,0.\C,0,0.90274,0.8656,0.\C,0,-0.58881,1.
 08046,0.\O,0,-1.16774,2.1428,0.\C,0,-1.21673,-0.28942,0.\H,0,-2.28433,
 -0.45818,0.\H,0,1.62324,1.67128,0.\H,0,-1.15805,-3.16995,0.\H,0,-0.290
 09,-1.2324,0.99619\H,0,1.19289,-0.42424,0.9962\H,0,-0.28887,-2.67968,0
 .99619\H,0,2.40845,-1.20975,0.99619\H,0,2.32398,-2.64158,0.99619\H,0,0
 .96016,-3.38482,0.99619\H,0,0.96565,0.92592,0.9962\H,0,-0.63051,1.1569
 9,0.9962\H,0,-1.30152,-0.30959,0.9962\H,0,-1.20777,2.21627,0.95635\Bq,
 0,0.,0.,0.\Bq,0,0.,0.,-0.1\Bq,0,0.,0.,-0.2\Bq,0,0.,0.,-0.3\Bq,0,0.,0.,
 -0.4\Bq,0,0.,0.,-0.5\Bq,0,0.,0.,-0.6\Bq,0,0.,0.,-0.7\Bq,0,0.,0.,-0.8\B
 q,0,0.,0.,-0.9\Bq,0,0.,0.,-1.\Bq,0,0.,0.,-1.1\Bq,0,0.,0.,-1.2\Bq,0,0.,
 0.,-1.3\Bq,0,0.,0.,-1.4\Bq,0,0.,0.,-1.5\Bq,0,0.,0.,-1.6\Bq,0,0.,0.,-1.
 7\Bq,0,0.,0.,-1.8\Bq,0,0.,0.,-1.9\Bq,0,0.,0.,-2.\Bq,0,0.,0.,-2.1\Bq,0,
 0.,0.,-2.2\Bq,0,0.,0.,-2.3\Bq,0,0.,0.,-2.4\Bq,0,0.,0.,-2.5\Bq,0,0.,0.,
 -2.6\Bq,0,0.,0.,-2.7\Bq,0,0.,0.,-2.8\Bq,0,0.,0.,-2.9\Bq,0,0.,0.,-3.\Bq
 ,0,0.,0.,-3.1\Bq,0,0.,0.,-3.2\Bq,0,0.,0.,-3.3\Bq,0,0.,0.,-3.4\Bq,0,0.,
 0.,-3.5\Bq,0,0.,0.,-3.6\Bq,0,0.,0.,-3.7\Bq,0,0.,0.,-3.8\Bq,0,0.,0.,-3.
 9\\Version=EM64L-G09RevD.01\HF=-426.9705383\RMSD=5.042e-09\Dipole=0.16
 30137,-0.2991351,2.1263664\Quadrupole=-0.6428316,-2.287443,2.9302746,1
 .2749964,0.3608308,-0.6621231\PG=C01 [X(C9H16O1)]\\@


 A SCIENTIST IS SOMEONE WHOSE CURIOSITY SURVIVES
 EDUCATION'S ASSAULTS ON IT.
                          - SIR HERMANN BONDI
 Job cpu time:       0 days  0 hours 18 minutes 57.8 seconds.
 File lengths (MBytes):  RWF=     32 Int=      0 D2E=      0 Chk=      5 Scr=      1
 Normal termination of Gaussian 09 at Tue Nov 11 01:23:07 2014.
