 Entering Gaussian System, Link 0=/usr/local/g09/g09
 Input=/home/anuja/input/indene-center1.in
 Output=/home/anuja/output/indene-center1.log
 Initial command:
 /usr/local/g09-D.01/g09/l1.exe /gtmp/Gau-5914.inp -scrdir=/gtmp/
 Entering Link 1 = /usr/local/g09-D.01/g09/l1.exe PID=      5916.
  
 Copyright (c) 1988,1990,1992,1993,1995,1998,2003,2009,2013,
            Gaussian, Inc.  All Rights Reserved.
  
 This is part of the Gaussian(R) 09 program.  It is based on
 the Gaussian(R) 03 system (copyright 2003, Gaussian, Inc.),
 the Gaussian(R) 98 system (copyright 1998, Gaussian, Inc.),
 the Gaussian(R) 94 system (copyright 1995, Gaussian, Inc.),
 the Gaussian 92(TM) system (copyright 1992, Gaussian, Inc.),
 the Gaussian 90(TM) system (copyright 1990, Gaussian, Inc.),
 the Gaussian 88(TM) system (copyright 1988, Gaussian, Inc.),
 the Gaussian 86(TM) system (copyright 1986, Carnegie Mellon
 University), and the Gaussian 82(TM) system (copyright 1983,
 Carnegie Mellon University). Gaussian is a federally registered
 trademark of Gaussian, Inc.
  
 This software contains proprietary and confidential information,
 including trade secrets, belonging to Gaussian, Inc.
  
 This software is provided under written license and may be
 used, copied, transmitted, or stored only in accord with that
 written license.
  
 The following legend is applicable only to US Government
 contracts under FAR:
  
                    RESTRICTED RIGHTS LEGEND
  
 Use, reproduction and disclosure by the US Government is
 subject to restrictions as set forth in subparagraphs (a)
 and (c) of the Commercial Computer Software - Restricted
 Rights clause in FAR 52.227-19.
  
 Gaussian, Inc.
 340 Quinnipiac St., Bldg. 40, Wallingford CT 06492
  
  
 ---------------------------------------------------------------
 Warning -- This program may not be used in any manner that
 competes with the business of Gaussian, Inc. or will provide
 assistance to any competitor of Gaussian, Inc.  The licensee
 of this program is prohibited from giving any competitor of
 Gaussian, Inc. access to this program.  By using this program,
 the user acknowledges that Gaussian, Inc. is engaged in the
 business of creating and licensing software in the field of
 computational chemistry and represents and warrants to the
 licensee that it is not a competitor of Gaussian, Inc. and that
 it will not use this program in any manner prohibited above.
 ---------------------------------------------------------------
  

 Cite this work as:
 Gaussian 09, Revision D.01,
 M. J. Frisch, G. W. Trucks, H. B. Schlegel, G. E. Scuseria, 
 M. A. Robb, J. R. Cheeseman, G. Scalmani, V. Barone, B. Mennucci, 
 G. A. Petersson, H. Nakatsuji, M. Caricato, X. Li, H. P. Hratchian, 
 A. F. Izmaylov, J. Bloino, G. Zheng, J. L. Sonnenberg, M. Hada, 
 M. Ehara, K. Toyota, R. Fukuda, J. Hasegawa, M. Ishida, T. Nakajima, 
 Y. Honda, O. Kitao, H. Nakai, T. Vreven, J. A. Montgomery, Jr., 
 J. E. Peralta, F. Ogliaro, M. Bearpark, J. J. Heyd, E. Brothers, 
 K. N. Kudin, V. N. Staroverov, T. Keith, R. Kobayashi, J. Normand, 
 K. Raghavachari, A. Rendell, J. C. Burant, S. S. Iyengar, J. Tomasi, 
 M. Cossi, N. Rega, J. M. Millam, M. Klene, J. E. Knox, J. B. Cross, 
 V. Bakken, C. Adamo, J. Jaramillo, R. Gomperts, R. E. Stratmann, 
 O. Yazyev, A. J. Austin, R. Cammi, C. Pomelli, J. W. Ochterski, 
 R. L. Martin, K. Morokuma, V. G. Zakrzewski, G. A. Voth, 
 P. Salvador, J. J. Dannenberg, S. Dapprich, A. D. Daniels, 
 O. Farkas, J. B. Foresman, J. V. Ortiz, J. Cioslowski, 
 and D. J. Fox, Gaussian, Inc., Wallingford CT, 2013.
 
 ******************************************
 Gaussian 09:  EM64L-G09RevD.01 24-Apr-2013
                11-Nov-2014 
 ******************************************
 %NPROC=6
 Will use up to    6 processors via shared memory.
 %MEM=6024MB
 ----------------------------------------------------------------------
 # B3LYP/6-311+G* NMR=GIAO INTEGRAL=(GRID=ULTRAFINE) CPHF=(GRID=FINE) P
 OP=FULL SCF(MAXCYCLE=512)
 ----------------------------------------------------------------------
 1/38=1/1;
 2/12=2,17=6,18=5,40=1/2;
 3/5=4,6=6,7=11,11=2,16=1,25=1,30=1,74=-5,75=-5/1,2,8,3;
 4//1;
 5/5=2,7=512,38=5,96=4/2;
 8/6=1,10=90,11=11/1;
 10/13=100,45=16,60=4/2;
 6/7=3,28=1/1;
 99/9=1/99;
 ----------------------------------------------------
 ----------------------------------------- # Center 1
 ----------------------------------------------------
 Symbolic Z-matrix:
 Charge =  0 Multiplicity = 1
 6                    -0.04127  -1.4488    0. 
 6                     1.22766  -0.75729   0. 
 6                     1.22766   0.75729   0. 
 6                    -0.04127   1.4488    0. 
 6                    -1.18639   0.73088   0. 
 6                    -1.18639  -0.73088   0. 
 1                    -0.05832  -2.53373   0. 
 1                    -0.05832   2.53373   0. 
 1                    -2.14558   1.23856   0. 
 1                    -2.14558  -1.23856   0. 
 6                     3.40148   0.        0. 
 8                     4.61132   0.        0. 
 6                     2.49908  -1.20688   0. 
 1                     2.86176  -2.22507   0. 
 6                     2.49908   1.20688   0. 
 1                     2.86176   2.22507   0. 
 bq                    0.        0.        0. 
 bq                    0.        0.        0.1 
 bq                    0.        0.        0.2 
 bq                    0.        0.        0.3 
 bq                    0.        0.        0.4 
 bq                    0.        0.        0.5 
 bq                    0.        0.        0.6 
 bq                    0.        0.        0.7 
 bq                    0.        0.        0.8 
 bq                    0.        0.        0.9 
 bq                    0.        0.        1. 
 bq                    0.        0.        1.1 
 bq                    0.        0.        1.2 
 bq                    0.        0.        1.3 
 bq                    0.        0.        1.4 
 bq                    0.        0.        1.5 
 bq                    0.        0.        1.6 
 bq                    0.        0.        1.7 
 bq                    0.        0.        1.8 
 bq                    0.        0.        1.9 
 bq                    0.        0.        2. 
 bq                    0.        0.        2.1 
 bq                    0.        0.        2.2 
 bq                    0.        0.        2.3 
 bq                    0.        0.        2.4 
 bq                    0.        0.        2.5 
 bq                    0.        0.        2.6 
 bq                    0.        0.        2.7 
 bq                    0.        0.        2.8 
 bq                    0.        0.        2.9 
 bq                    0.        0.        3. 
 bq                    0.        0.        3.1 
 bq                    0.        0.        3.2 
 bq                    0.        0.        3.3 
 bq                    0.        0.        3.4 
 bq                    0.        0.        3.5 
 bq                    0.        0.        3.6 
 bq                    0.        0.        3.7 
 bq                    0.        0.        3.8 
 bq                    0.        0.        3.9 
 
 Symmetry turned off:
 Cannot cope with ghost atoms or with translation vectors.
 Stoichiometry    C9H6O
 Framework group  C1[X(C9H6O)]
 NUMDOF-- NAT=    16 NAtoms=    56
 Deg. of freedom     0
 Full point group                 C1      NOp   1
                          Input orientation:                          
 ---------------------------------------------------------------------
 Center     Atomic      Atomic             Coordinates (Angstroms)
 Number     Number       Type             X           Y           Z
 ---------------------------------------------------------------------
      1          6           0       -0.041270   -1.448800    0.000000
      2          6           0        1.227660   -0.757290    0.000000
      3          6           0        1.227660    0.757290    0.000000
      4          6           0       -0.041270    1.448800    0.000000
      5          6           0       -1.186390    0.730880    0.000000
      6          6           0       -1.186390   -0.730880    0.000000
      7          1           0       -0.058320   -2.533730    0.000000
      8          1           0       -0.058320    2.533730    0.000000
      9          1           0       -2.145580    1.238560    0.000000
     10          1           0       -2.145580   -1.238560    0.000000
     11          6           0        3.401480    0.000000    0.000000
     12          8           0        4.611320    0.000000    0.000000
     13          6           0        2.499080   -1.206880    0.000000
     14          1           0        2.861760   -2.225070    0.000000
     15          6           0        2.499080    1.206880    0.000000
     16          1           0        2.861760    2.225070    0.000000
     17          0           0        0.000000    0.000000    0.000000
     18          0           0        0.000000    0.000000    0.100000
     19          0           0        0.000000    0.000000    0.200000
     20          0           0        0.000000    0.000000    0.300000
     21          0           0        0.000000    0.000000    0.400000
     22          0           0        0.000000    0.000000    0.500000
     23          0           0        0.000000    0.000000    0.600000
     24          0           0        0.000000    0.000000    0.700000
     25          0           0        0.000000    0.000000    0.800000
     26          0           0        0.000000    0.000000    0.900000
     27          0           0        0.000000    0.000000    1.000000
     28          0           0        0.000000    0.000000    1.100000
     29          0           0        0.000000    0.000000    1.200000
     30          0           0        0.000000    0.000000    1.300000
     31          0           0        0.000000    0.000000    1.400000
     32          0           0        0.000000    0.000000    1.500000
     33          0           0        0.000000    0.000000    1.600000
     34          0           0        0.000000    0.000000    1.700000
     35          0           0        0.000000    0.000000    1.800000
     36          0           0        0.000000    0.000000    1.900000
     37          0           0        0.000000    0.000000    2.000000
     38          0           0        0.000000    0.000000    2.100000
     39          0           0        0.000000    0.000000    2.200000
     40          0           0        0.000000    0.000000    2.300000
     41          0           0        0.000000    0.000000    2.400000
     42          0           0        0.000000    0.000000    2.500000
     43          0           0        0.000000    0.000000    2.600000
     44          0           0        0.000000    0.000000    2.700000
     45          0           0        0.000000    0.000000    2.800000
     46          0           0        0.000000    0.000000    2.900000
     47          0           0        0.000000    0.000000    3.000000
     48          0           0        0.000000    0.000000    3.100000
     49          0           0        0.000000    0.000000    3.200000
     50          0           0        0.000000    0.000000    3.300000
     51          0           0        0.000000    0.000000    3.400000
     52          0           0        0.000000    0.000000    3.500000
     53          0           0        0.000000    0.000000    3.600000
     54          0           0        0.000000    0.000000    3.700000
     55          0           0        0.000000    0.000000    3.800000
     56          0           0        0.000000    0.000000    3.900000
 ---------------------------------------------------------------------
 Rotational constants (GHZ):      3.6640365      1.0382440      0.8090040
 Standard basis: 6-311+G(d) (5D, 7F)
 Warning:  center  17 has no basis functions!
 Warning:  center  18 has no basis functions!
 Warning:  center  19 has no basis functions!
 Warning:  center  20 has no basis functions!
 Warning:  center  21 has no basis functions!
 Warning:  center  22 has no basis functions!
 Warning:  center  23 has no basis functions!
 Warning:  center  24 has no basis functions!
 Warning:  center  25 has no basis functions!
 Warning:  center  26 has no basis functions!
 Warning:  center  27 has no basis functions!
 Warning:  center  28 has no basis functions!
 Warning:  center  29 has no basis functions!
 Warning:  center  30 has no basis functions!
 Warning:  center  31 has no basis functions!
 Warning:  center  32 has no basis functions!
 Warning:  center  33 has no basis functions!
 Warning:  center  34 has no basis functions!
 Warning:  center  35 has no basis functions!
 Warning:  center  36 has no basis functions!
 Warning:  center  37 has no basis functions!
 Warning:  center  38 has no basis functions!
 Warning:  center  39 has no basis functions!
 Warning:  center  40 has no basis functions!
 Warning:  center  41 has no basis functions!
 Warning:  center  42 has no basis functions!
 Warning:  center  43 has no basis functions!
 Warning:  center  44 has no basis functions!
 Warning:  center  45 has no basis functions!
 Warning:  center  46 has no basis functions!
 Warning:  center  47 has no basis functions!
 Warning:  center  48 has no basis functions!
 Warning:  center  49 has no basis functions!
 Warning:  center  50 has no basis functions!
 Warning:  center  51 has no basis functions!
 Warning:  center  52 has no basis functions!
 Warning:  center  53 has no basis functions!
 Warning:  center  54 has no basis functions!
 Warning:  center  55 has no basis functions!
 Warning:  center  56 has no basis functions!
   238 basis functions,   390 primitive gaussians,   248 cartesian basis functions
    34 alpha electrons       34 beta electrons
       nuclear repulsion energy       451.5752843353 Hartrees.
 NAtoms=   56 NActive=   56 NUniq=   56 SFac= 1.00D+00 NAtFMM=   60 NAOKFM=F Big=F
 Integral buffers will be    131072 words long.
 Raffenetti 2 integral format.
 Two-electron integral symmetry is turned off.
 One-electron integrals computed using PRISM.
 NBasis=   238 RedAO= T EigKep=  2.65D-06  NBF=   238
 NBsUse=   237 1.00D-06 EigRej=  7.51D-07 NBFU=   237
 ExpMin= 4.38D-02 ExpMax= 8.59D+03 ExpMxC= 1.30D+03 IAcc=3 IRadAn=         5 AccDes= 0.00D+00
 Harris functional with IExCor=  402 and IRadAn=       5 diagonalized for initial guess.
 HarFok:  IExCor=  402 AccDes= 0.00D+00 IRadAn=         5 IDoV= 1 UseB2=F ITyADJ=14
 ICtDFT=  3500011 ScaDFX=  1.000000  1.000000  1.000000  1.000000
 FoFCou: FMM=F IPFlag=           0 FMFlag=      100000 FMFlg1=           0
         NFxFlg=           0 DoJE=T BraDBF=F KetDBF=T FulRan=T
         wScrn=  0.000000 ICntrl=     500 IOpCl=  0 I1Cent=   200000004 NGrid=           0
         NMat0=    1 NMatS0=      1 NMatT0=    0 NMatD0=    1 NMtDS0=    0 NMtDT0=    0
 Symmetry not used in FoFCou.
 Keep R1 ints in memory in canonical form, NReq=412632291.
 Requested convergence on RMS density matrix=1.00D-08 within 512 cycles.
 Requested convergence on MAX density matrix=1.00D-06.
 Requested convergence on             energy=1.00D-06.
 No special actions if energy rises.
 SCF Done:  E(RB3LYP) =  -421.829352325     A.U. after   14 cycles
            NFock= 14  Conv=0.25D-08     -V/T= 2.0041
 DoSCS=F DFT=T ScalE2(SS,OS)=  1.000000  1.000000
 Range of M.O.s used for correlation:     1   237
 NBasis=   238 NAE=    34 NBE=    34 NFC=     0 NFV=     0
 NROrb=    237 NOA=    34 NOB=    34 NVA=   203 NVB=   203

 **** Warning!!: The largest alpha MO coefficient is  0.21464118D+03


 **** Warning!!: The smallest alpha delta epsilon is  0.83375841D-01

          Differentiating once with respect to magnetic field using GIAOs.
          Electric field/nuclear overlap derivatives assumed to be zero.
 Keep R3 ints in memory in canonical form, NReq=412189588.
 FoFJK:  IHMeth= 1 ICntrl=    6127 DoSepK=F KAlg= 0 I1Cent=   0 FoldK=F
 IRaf=         1 NMat=   1 IRICut=       1 DoRegI=T DoRafI=F ISym2E= 0.
          There are     3 degrees of freedom in the 1st order CPHF.  IDoFFX=0 NUNeed=     3.
      3 vectors produced by pass  0 Test12= 2.30D-13 3.33D-08 XBig12= 1.98D+02 5.32D+00.
 AX will form     3 AO Fock derivatives at one time.
      3 vectors produced by pass  1 Test12= 2.30D-13 3.33D-08 XBig12= 4.68D+00 1.95D+00.
      3 vectors produced by pass  2 Test12= 2.30D-13 3.33D-08 XBig12= 3.34D-02 4.43D-02.
      3 vectors produced by pass  3 Test12= 2.30D-13 3.33D-08 XBig12= 1.00D-04 5.63D-03.
      3 vectors produced by pass  4 Test12= 2.30D-13 3.33D-08 XBig12= 7.55D-07 4.47D-04.
      3 vectors produced by pass  5 Test12= 2.30D-13 3.33D-08 XBig12= 2.35D-09 1.38D-05.
      3 vectors produced by pass  6 Test12= 2.30D-13 3.33D-08 XBig12= 5.94D-12 8.10D-07.
 InvSVY:  IOpt=1 It=  1 EMax= 8.88D-16
 Solved reduced A of dimension    21 with     3 vectors.
 Calculating GIAO nuclear magnetic shielding tensors.
 SCF GIAO Magnetic shielding tensor (ppm):
      1  C    Isotropic =    49.1368   Anisotropy =   152.7952
   XX=    38.5165   YX=   -26.9744   ZX=     0.0000
   XY=   -30.9940   YY=   -42.1065   ZY=     0.0000
   XZ=     0.0000   YZ=     0.0000   ZZ=   151.0002
   Eigenvalues:   -51.4448    47.8548   151.0002
      2  C    Isotropic =    14.0113   Anisotropy =   158.7386
   XX=     0.4579   YX=   -36.7094   ZX=     0.0000
   XY=   -45.6031   YY=   -78.2611   ZY=     0.0000
   XZ=     0.0000   YZ=     0.0000   ZZ=   119.8370
   Eigenvalues:   -95.8490    18.0458   119.8370
      3  C    Isotropic =    14.0113   Anisotropy =   158.7386
   XX=     0.4579   YX=    36.7094   ZX=     0.0000
   XY=    45.6031   YY=   -78.2611   ZY=     0.0000
   XZ=     0.0000   YZ=     0.0000   ZZ=   119.8370
   Eigenvalues:   -95.8490    18.0458   119.8370
      4  C    Isotropic =    49.1368   Anisotropy =   152.7952
   XX=    38.5165   YX=    26.9744   ZX=     0.0000
   XY=    30.9940   YY=   -42.1065   ZY=     0.0000
   XZ=     0.0000   YZ=     0.0000   ZZ=   151.0002
   Eigenvalues:   -51.4448    47.8548   151.0002
      5  C    Isotropic =    46.7952   Anisotropy =   155.9637
   XX=     1.3408   YX=    45.2537   ZX=     0.0000
   XY=    55.4357   YY=   -11.7261   ZY=     0.0000
   XZ=     0.0000   YZ=     0.0000   ZZ=   150.7710
   Eigenvalues:   -55.9595    45.5742   150.7710
      6  C    Isotropic =    46.7952   Anisotropy =   155.9637
   XX=     1.3408   YX=   -45.2537   ZX=     0.0000
   XY=   -55.4357   YY=   -11.7261   ZY=     0.0000
   XZ=     0.0000   YZ=     0.0000   ZZ=   150.7710
   Eigenvalues:   -55.9595    45.5742   150.7710
      7  H    Isotropic =    26.7497   Anisotropy =     2.2018
   XX=    28.0395   YX=    -0.8958   ZX=     0.0000
   XY=    -0.8099   YY=    24.1316   ZY=     0.0000
   XZ=     0.0000   YZ=     0.0000   ZZ=    28.0780
   Eigenvalues:    23.9536    28.0780    28.2175
      8  H    Isotropic =    26.7497   Anisotropy =     2.2018
   XX=    28.0395   YX=     0.8958   ZX=     0.0000
   XY=     0.8099   YY=    24.1316   ZY=     0.0000
   XZ=     0.0000   YZ=     0.0000   ZZ=    28.0780
   Eigenvalues:    23.9536    28.0780    28.2175
      9  H    Isotropic =    27.2864   Anisotropy =     1.8420
   XX=    26.8202   YX=     1.4365   ZX=     0.0000
   XY=     2.0450   YY=    26.7257   ZY=     0.0000
   XZ=     0.0000   YZ=     0.0000   ZZ=    28.3132
   Eigenvalues:    25.0316    28.3132    28.5144
     10  H    Isotropic =    27.2864   Anisotropy =     1.8420
   XX=    26.8202   YX=    -1.4365   ZX=     0.0000
   XY=    -2.0450   YY=    26.7257   ZY=     0.0000
   XZ=     0.0000   YZ=     0.0000   ZZ=    28.3132
   Eigenvalues:    25.0316    28.3132    28.5144
     11  C    Isotropic =   -30.4209   Anisotropy =   137.9078
   XX=   -50.0688   YX=     0.0000   ZX=     0.0000
   XY=     0.0000   YY=  -102.7116   ZY=     0.0000
   XZ=     0.0000   YZ=     0.0000   ZZ=    61.5176
   Eigenvalues:  -102.7116   -50.0688    61.5176
     12  O    Isotropic =  -451.2151   Anisotropy =  1191.5472
   XX= -1278.0942   YX=     0.0000   ZX=     0.0000
   XY=     0.0000   YY=  -418.7008   ZY=     0.0000
   XZ=     0.0000   YZ=     0.0000   ZZ=   343.1497
   Eigenvalues: -1278.0942  -418.7008   343.1497
     13  C    Isotropic =    68.3413   Anisotropy =    80.0154
   XX=    99.6340   YX=   -74.0160   ZX=     0.0000
   XY=   -16.4522   YY=   -16.2950   ZY=     0.0000
   XZ=     0.0000   YZ=     0.0000   ZZ=   121.6849
   Eigenvalues:   -31.8561   115.1951   121.6849
     14  H    Isotropic =    28.5346   Anisotropy =     3.5004
   XX=    30.4986   YX=    -3.1579   ZX=     0.0000
   XY=     0.2001   YY=    24.9510   ZY=     0.0000
   XZ=     0.0000   YZ=     0.0000   ZZ=    30.1543
   Eigenvalues:    24.5814    30.1543    30.8682
     15  C    Isotropic =    68.3413   Anisotropy =    80.0154
   XX=    99.6340   YX=    74.0160   ZX=     0.0000
   XY=    16.4522   YY=   -16.2950   ZY=     0.0000
   XZ=     0.0000   YZ=     0.0000   ZZ=   121.6849
   Eigenvalues:   -31.8561   115.1951   121.6849
     16  H    Isotropic =    28.5346   Anisotropy =     3.5004
   XX=    30.4986   YX=     3.1579   ZX=     0.0000
   XY=    -0.2001   YY=    24.9510   ZY=     0.0000
   XZ=     0.0000   YZ=     0.0000   ZZ=    30.1543
   Eigenvalues:    24.5814    30.1543    30.8682
     17  Bq   Isotropic =   -14.9273   Anisotropy =    33.7895
   XX=     5.1744   YX=     0.0000   ZX=     0.0000
   XY=     0.0000   YY=     7.5991   ZY=     0.0000
   XZ=     0.0000   YZ=     0.0000   ZZ=   -57.5553
   Eigenvalues:   -57.5553     5.1744     7.5991
     18  Bq   Isotropic =   -14.8641   Anisotropy =    33.6627
   XX=     5.0674   YX=     0.0000   ZX=    -0.1294
   XY=     0.0000   YY=     7.5777   ZY=     0.0000
   XZ=     0.4490   YZ=     0.0000   ZZ=   -57.2374
   Eigenvalues:   -57.2378     5.0678     7.5777
     19  Bq   Isotropic =   -14.6727   Anisotropy =    33.2654
   XX=     4.7588   YX=     0.0000   ZX=    -0.2381
   XY=     0.0000   YY=     7.5043   ZY=     0.0000
   XZ=     0.9078   YZ=     0.0000   ZZ=   -56.2811
   Eigenvalues:   -56.2829     4.7607     7.5043
     20  Bq   Isotropic =   -14.3494   Anisotropy =    32.5560
   XX=     4.2828   YX=     0.0000   ZX=    -0.3105
   XY=     0.0000   YY=     7.3546   ZY=     0.0000
   XZ=     1.3821   YZ=     0.0000   ZZ=   -54.6856
   Eigenvalues:   -54.6905     4.2876     7.3546
     21  Bq   Isotropic =   -13.8931   Anisotropy =    31.4912
   XX=     3.6881   YX=     0.0000   ZX=    -0.3399
   XY=     0.0000   YY=     7.1010   ZY=     0.0000
   XZ=     1.8702   YZ=     0.0000   ZZ=   -52.4685
   Eigenvalues:   -52.4789     3.6985     7.1010
     22  Bq   Isotropic =   -13.3098   Anisotropy =    30.0503
   XX=     3.0289   YX=     0.0000   ZX=    -0.3288
   XY=     0.0000   YY=     6.7238   ZY=     0.0000
   XZ=     2.3623   YZ=     0.0000   ZZ=   -49.6821
   Eigenvalues:   -49.7017     3.0485     6.7238
     23  Bq   Isotropic =   -12.6151   Anisotropy =    28.2523
   XX=     2.3555   YX=     0.0000   ZX=    -0.2863
   XY=     0.0000   YY=     6.2197   ZY=     0.0000
   XZ=     2.8416   YZ=     0.0000   ZZ=   -46.4206
   Eigenvalues:   -46.4541     2.3889     6.2197
     24  Bq   Isotropic =   -11.8343   Anisotropy =    26.1567
   XX=     1.7080   YX=     0.0000   ZX=    -0.2246
   XY=     0.0000   YY=     5.6035   ZY=     0.0000
   XZ=     3.2874   YZ=     0.0000   ZZ=   -42.8144
   Eigenvalues:   -42.8670     1.7606     5.6035
     25  Bq   Isotropic =   -10.9986   Anisotropy =    23.8534
   XX=     1.1138   YX=     0.0000   ZX=    -0.1561
   XY=     0.0000   YY=     4.9036   ZY=     0.0000
   XZ=     3.6791   YZ=     0.0000   ZZ=   -39.0134
   Eigenvalues:   -39.0906     1.1910     4.9036
     26  Bq   Isotropic =   -10.1409   Anisotropy =    21.4455
   XX=     0.5882   YX=     0.0000   ZX=    -0.0903
   XY=     0.0000   YY=     4.1561   ZY=     0.0000
   XZ=     3.9999   YZ=     0.0000   ZZ=   -35.1670
   Eigenvalues:   -35.2735     0.6947     4.1561
     27  Bq   Isotropic =    -9.2911   Anisotropy =    19.0322
   XX=     0.1361   YX=     0.0000   ZX=    -0.0340
   XY=     0.0000   YY=     3.3971   ZY=     0.0000
   XZ=     4.2393   YZ=     0.0000   ZZ=   -31.4063
   Eigenvalues:   -31.5459     0.2756     3.3971
     28  Bq   Isotropic =    -8.4729   Anisotropy =    16.6971
   XX=    -0.2439   YX=     0.0000   ZX=     0.0097
   XY=     0.0000   YY=     2.6585   ZY=     0.0000
   XZ=     4.3940   YZ=     0.0000   ZZ=   -27.8333
   Eigenvalues:   -28.0079    -0.0693     2.6585
     29  Bq   Isotropic =    -7.7030   Anisotropy =    14.5022
   XX=    -0.5571   YX=     0.0000   ZX=     0.0399
   XY=     0.0000   YY=     1.9652   ZY=     0.0000
   XZ=     4.4672   YZ=     0.0000   ZZ=   -24.5170
   Eigenvalues:   -24.7271    -0.3470     1.9652
     30  Bq   Isotropic =    -6.9906   Anisotropy =    12.4877
   XX=    -0.8104   YX=     0.0000   ZX=     0.0576
   XY=     0.0000   YY=     1.3345   ZY=     0.0000
   XZ=     4.4671   YZ=     0.0000   ZZ=   -21.4960
   Eigenvalues:   -21.7405    -0.5658     1.3345
     31  Bq   Isotropic =    -6.3394   Anisotropy =    10.6740
   XX=    -1.0109   YX=     0.0000   ZX=     0.0645
   XY=     0.0000   YY=     0.7766   ZY=     0.0000
   XZ=     4.4047   YZ=     0.0000   ZZ=   -18.7838
   Eigenvalues:   -19.0605    -0.7343     0.7766
     32  Bq   Isotropic =    -5.7485   Anisotropy =     9.0669
   XX=    -1.1655   YX=     0.0000   ZX=     0.0627
   XY=     0.0000   YY=     0.2961   ZY=     0.0000
   XZ=     4.2921   YZ=     0.0000   ZZ=   -16.3761
   Eigenvalues:   -16.6817    -0.8599     0.2961
     33  Bq   Isotropic =    -5.2146   Anisotropy =     7.6614
   XX=    -1.2803   YX=     0.0000   ZX=     0.0545
   XY=     0.0000   YY=    -0.1070   ZY=     0.0000
   XZ=     4.1412   YZ=     0.0000   ZZ=   -14.2564
   Eigenvalues:   -14.5872    -0.9495    -0.1070
     34  Bq   Isotropic =    -4.7329   Anisotropy =     6.4452
   XX=    -1.3608   YX=     0.0000   ZX=     0.0418
   XY=     0.0000   YY=    -0.4361   ZY=     0.0000
   XZ=     3.9627   YZ=     0.0000   ZZ=   -12.4019
   Eigenvalues:   -12.7538    -1.0089    -0.4361
     35  Bq   Isotropic =    -4.2986   Anisotropy =     5.4025
   XX=    -1.4121   YX=     0.0000   ZX=     0.0263
   XY=     0.0000   YY=    -0.6969   ZY=     0.0000
   XZ=     3.7657   YZ=     0.0000   ZZ=   -10.7867
   Eigenvalues:   -11.1556    -1.0431    -0.6969
     36  Bq   Isotropic =    -3.9066   Anisotropy =     4.5153
   XX=    -1.4389   YX=     0.0000   ZX=     0.0094
   XY=     0.0000   YY=    -0.8964   ZY=     0.0000
   XZ=     3.5577   YZ=     0.0000   ZZ=    -9.3844
   Eigenvalues:    -9.7664    -1.0569    -0.8964
     37  Bq   Isotropic =    -3.5526   Anisotropy =     3.7651
   XX=    -1.4455   YX=     0.0000   ZX=    -0.0077
   XY=     0.0000   YY=    -1.0426   ZY=     0.0000
   XZ=     3.3445   YZ=     0.0000   ZZ=    -8.1699
   Eigenvalues:    -8.5611    -1.0543    -1.0426
     38  Bq   Isotropic =    -3.2329   Anisotropy =     3.2910
   XX=    -1.4356   YX=     0.0000   ZX=    -0.0242
   XY=     0.0000   YY=    -1.1436   ZY=     0.0000
   XZ=     3.1306   YZ=     0.0000   ZZ=    -7.1195
   Eigenvalues:    -7.5162    -1.1436    -1.0389
     39  Bq   Isotropic =    -2.9441   Anisotropy =     2.8951
   XX=    -1.4130   YX=     0.0000   ZX=    -0.0395
   XY=     0.0000   YY=    -1.2073   ZY=     0.0000
   XZ=     2.9195   YZ=     0.0000   ZZ=    -6.2119
   Eigenvalues:    -6.6109    -1.2073    -1.0140
     40  Bq   Isotropic =    -2.6832   Anisotropy =     2.5513
   XX=    -1.3804   YX=     0.0000   ZX=    -0.0532
   XY=     0.0000   YY=    -1.2411   ZY=     0.0000
   XZ=     2.7139   YZ=     0.0000   ZZ=    -5.4281
   Eigenvalues:    -5.8262    -1.2411    -0.9823
     41  Bq   Isotropic =    -2.4477   Anisotropy =     2.2524
   XX=    -1.3407   YX=     0.0000   ZX=    -0.0649
   XY=     0.0000   YY=    -1.2513   ZY=     0.0000
   XZ=     2.5157   YZ=     0.0000   ZZ=    -4.7509
   Eigenvalues:    -5.1456    -1.2513    -0.9461
     42  Bq   Isotropic =    -2.2351   Anisotropy =     1.9921
   XX=    -1.2960   YX=     0.0000   ZX=    -0.0747
   XY=     0.0000   YY=    -1.2437   ZY=     0.0000
   XZ=     2.3263   YZ=     0.0000   ZZ=    -4.1656
   Eigenvalues:    -4.5546    -1.2437    -0.9070
     43  Bq   Isotropic =    -2.0434   Anisotropy =     1.7652
   XX=    -1.2480   YX=     0.0000   ZX=    -0.0825
   XY=     0.0000   YY=    -1.2229   ZY=     0.0000
   XZ=     2.1467   YZ=     0.0000   ZZ=    -3.6592
   Eigenvalues:    -4.0407    -1.2229    -0.8666
     44  Bq   Isotropic =    -1.8704   Anisotropy =     1.5671
   XX=    -1.1983   YX=     0.0000   ZX=    -0.0885
   XY=     0.0000   YY=    -1.1926   ZY=     0.0000
   XZ=     1.9776   YZ=     0.0000   ZZ=    -3.2204
   Eigenvalues:    -3.5930    -1.1926    -0.8257
     45  Bq   Isotropic =    -1.7144   Anisotropy =     1.3940
   XX=    -1.1478   YX=     0.0000   ZX=    -0.0928
   XY=     0.0000   YY=    -1.1558   ZY=     0.0000
   XZ=     1.8194   YZ=     0.0000   ZZ=    -2.8395
   Eigenvalues:    -3.2022    -1.1558    -0.7850
     46  Bq   Isotropic =    -1.5735   Anisotropy =     1.2427
   XX=    -1.0974   YX=     0.0000   ZX=    -0.0957
   XY=     0.0000   YY=    -1.1149   ZY=     0.0000
   XZ=     1.6720   YZ=     0.0000   ZZ=    -2.5082
   Eigenvalues:    -2.8606    -1.1149    -0.7451
     47  Bq   Isotropic =    -1.4463   Anisotropy =     1.1103
   XX=    -1.0477   YX=     0.0000   ZX=    -0.0972
   XY=     0.0000   YY=    -1.0716   ZY=     0.0000
   XZ=     1.5354   YZ=     0.0000   ZZ=    -2.2195
   Eigenvalues:    -2.5612    -1.0716    -0.7061
     48  Bq   Isotropic =    -1.3312   Anisotropy =     0.9946
   XX=    -0.9992   YX=     0.0000   ZX=    -0.0977
   XY=     0.0000   YY=    -1.0271   ZY=     0.0000
   XZ=     1.4094   YZ=     0.0000   ZZ=    -1.9672
   Eigenvalues:    -2.2983    -1.0271    -0.6682
     49  Bq   Isotropic =    -1.2270   Anisotropy =     0.8934
   XX=    -0.9522   YX=     0.0000   ZX=    -0.0972
   XY=     0.0000   YY=    -0.9824   ZY=     0.0000
   XZ=     1.2934   YZ=     0.0000   ZZ=    -1.7463
   Eigenvalues:    -2.0672    -0.9824    -0.6314
     50  Bq   Isotropic =    -1.1325   Anisotropy =     0.8050
   XX=    -0.9069   YX=     0.0000   ZX=    -0.0960
   XY=     0.0000   YY=    -0.9383   ZY=     0.0000
   XZ=     1.1870   YZ=     0.0000   ZZ=    -1.5524
   Eigenvalues:    -1.8635    -0.9383    -0.5959
     51  Bq   Isotropic =    -1.0468   Anisotropy =     0.7280
   XX=    -0.8634   YX=     0.0000   ZX=    -0.0943
   XY=     0.0000   YY=    -0.8951   ZY=     0.0000
   XZ=     1.0897   YZ=     0.0000   ZZ=    -1.3818
   Eigenvalues:    -1.6838    -0.8951    -0.5614
     52  Bq   Isotropic =    -0.9688   Anisotropy =     0.6610
   XX=    -0.8218   YX=     0.0000   ZX=    -0.0920
   XY=     0.0000   YY=    -0.8532   ZY=     0.0000
   XZ=     1.0009   YZ=     0.0000   ZZ=    -1.2314
   Eigenvalues:    -1.5251    -0.8532    -0.5282
     53  Bq   Isotropic =    -0.8978   Anisotropy =     0.6027
   XX=    -0.7821   YX=     0.0000   ZX=    -0.0894
   XY=     0.0000   YY=    -0.8127   ZY=     0.0000
   XZ=     0.9199   YZ=     0.0000   ZZ=    -1.0985
   Eigenvalues:    -1.3846    -0.8127    -0.4959
     54  Bq   Isotropic =    -0.8330   Anisotropy =     0.5523
   XX=    -0.7443   YX=     0.0000   ZX=    -0.0865
   XY=     0.0000   YY=    -0.7740   ZY=     0.0000
   XZ=     0.8461   YZ=     0.0000   ZZ=    -0.9808
   Eigenvalues:    -1.2603    -0.7740    -0.4648
     55  Bq   Isotropic =    -0.7738   Anisotropy =     0.5089
   XX=    -0.7083   YX=     0.0000   ZX=    -0.0835
   XY=     0.0000   YY=    -0.7369   ZY=     0.0000
   XZ=     0.7790   YZ=     0.0000   ZZ=    -0.8763
   Eigenvalues:    -1.1501    -0.7369    -0.4346
     56  Bq   Isotropic =    -0.7197   Anisotropy =     0.4715
   XX=    -0.6742   YX=     0.0000   ZX=    -0.0803
   XY=     0.0000   YY=    -0.7015   ZY=     0.0000
   XZ=     0.7179   YZ=     0.0000   ZZ=    -0.7835
   Eigenvalues:    -1.0523    -0.7015    -0.4054
 End of Minotr F.D. properties file   721 does not exist.
 End of Minotr F.D. properties file   722 does not exist.
 End of Minotr F.D. properties file   788 does not exist.

 **********************************************************************

            Population analysis using the SCF density.

 **********************************************************************

 Alpha  occ. eigenvalues --  -19.13695 -10.27270 -10.21244 -10.21220 -10.20593
 Alpha  occ. eigenvalues --  -10.20560 -10.20178 -10.20177 -10.18561 -10.18560
 Alpha  occ. eigenvalues --   -1.06348  -0.89919  -0.83551  -0.79152  -0.72161
 Alpha  occ. eigenvalues --   -0.70408  -0.61094  -0.59690  -0.56231  -0.52850
 Alpha  occ. eigenvalues --   -0.49975  -0.48376  -0.46212  -0.43501  -0.43244
 Alpha  occ. eigenvalues --   -0.43193  -0.42168  -0.39880  -0.38811  -0.35602
 Alpha  occ. eigenvalues --   -0.31355  -0.30918  -0.27037  -0.21804
 Alpha virt. eigenvalues --   -0.13466  -0.02262  -0.00430   0.00291   0.01032
 Alpha virt. eigenvalues --    0.01739   0.03570   0.03645   0.03764   0.04675
 Alpha virt. eigenvalues --    0.06454   0.06477   0.06498   0.06576   0.08948
 Alpha virt. eigenvalues --    0.09156   0.10372   0.10382   0.10627   0.11183
 Alpha virt. eigenvalues --    0.12048   0.14372   0.14881   0.14948   0.15060
 Alpha virt. eigenvalues --    0.15469   0.15920   0.16035   0.16795   0.17064
 Alpha virt. eigenvalues --    0.17344   0.18389   0.19107   0.19750   0.20320
 Alpha virt. eigenvalues --    0.20369   0.20994   0.21661   0.21875   0.22964
 Alpha virt. eigenvalues --    0.23692   0.24479   0.24805   0.26035   0.26290
 Alpha virt. eigenvalues --    0.26685   0.27554   0.29189   0.29721   0.30424
 Alpha virt. eigenvalues --    0.30975   0.31383   0.33063   0.34935   0.36440
 Alpha virt. eigenvalues --    0.39199   0.39602   0.43515   0.43678   0.46289
 Alpha virt. eigenvalues --    0.48954   0.51412   0.51756   0.51811   0.52933
 Alpha virt. eigenvalues --    0.54213   0.54664   0.55369   0.55997   0.56826
 Alpha virt. eigenvalues --    0.58330   0.60527   0.61474   0.61913   0.63889
 Alpha virt. eigenvalues --    0.64108   0.67569   0.67872   0.68773   0.69625
 Alpha virt. eigenvalues --    0.69887   0.70996   0.75279   0.76161   0.77420
 Alpha virt. eigenvalues --    0.80009   0.81649   0.82035   0.82738   0.84770
 Alpha virt. eigenvalues --    0.86412   0.89039   0.89563   0.90665   0.91626
 Alpha virt. eigenvalues --    0.93436   0.94002   0.95929   0.97622   1.02128
 Alpha virt. eigenvalues --    1.03052   1.05820   1.09529   1.10725   1.12398
 Alpha virt. eigenvalues --    1.12992   1.13282   1.15293   1.18154   1.19389
 Alpha virt. eigenvalues --    1.19529   1.25669   1.27451   1.30836   1.31268
 Alpha virt. eigenvalues --    1.42737   1.45504   1.49270   1.54640   1.56109
 Alpha virt. eigenvalues --    1.59917   1.62274   1.64923   1.65699   1.69149
 Alpha virt. eigenvalues --    1.69788   1.74755   1.75763   1.77866   1.78768
 Alpha virt. eigenvalues --    1.83972   1.86714   1.87004   1.89546   1.94218
 Alpha virt. eigenvalues --    1.96192   1.97447   1.97757   1.99818   2.10779
 Alpha virt. eigenvalues --    2.13177   2.13921   2.17671   2.22018   2.24392
 Alpha virt. eigenvalues --    2.28068   2.30791   2.31194   2.34980   2.35558
 Alpha virt. eigenvalues --    2.42106   2.47222   2.57808   2.60149   2.62552
 Alpha virt. eigenvalues --    2.66255   2.70549   2.75780   2.78593   2.81593
 Alpha virt. eigenvalues --    2.87344   2.87694   2.87779   2.91697   2.95080
 Alpha virt. eigenvalues --    2.97620   2.99376   3.02573   3.05458   3.12549
 Alpha virt. eigenvalues --    3.19202   3.21183   3.25649   3.30777   3.34038
 Alpha virt. eigenvalues --    3.34148   3.34809   3.40669   3.47101   3.48522
 Alpha virt. eigenvalues --    3.53184   3.59232   3.62332   3.70760   3.83949
 Alpha virt. eigenvalues --    3.99004   4.01732   4.21170   4.51286   4.68749
 Alpha virt. eigenvalues --    5.03797   5.18517   5.71169  23.28349  23.64543
 Alpha virt. eigenvalues --   23.68291  23.72896  23.86555  24.11723  24.12974
 Alpha virt. eigenvalues --   24.14782  24.18813  50.01664
     Molecular Orbital Coefficients:
                           1         2         3         4         5
                           O         O         O         O         O
     Eigenvalues --   -19.13695 -10.27270 -10.21244 -10.21220 -10.20593
   1 1   C  1S          0.00000  -0.00002   0.00682   0.00735   0.03463
   2        2S          0.00002   0.00002   0.00573   0.00610   0.02884
   3        2PX         0.00001   0.00006   0.00049   0.00042  -0.00065
   4        2PY        -0.00001   0.00000   0.00021   0.00016   0.00029
   5        2PZ         0.00000   0.00000   0.00000   0.00000   0.00000
   6        3S         -0.00017  -0.00026   0.00009   0.00034   0.00019
   7        3PX        -0.00006  -0.00038  -0.00190  -0.00159   0.00355
   8        3PY         0.00002  -0.00001  -0.00067  -0.00028  -0.00160
   9        3PZ         0.00000   0.00000   0.00000   0.00000   0.00000
  10        4S          0.00260   0.00191   0.00017   0.00378  -0.00381
  11        4PX         0.00208   0.00255   0.00136  -0.00099  -0.00111
  12        4PY         0.00017  -0.00041   0.00017   0.00459  -0.00121
  13        4PZ         0.00000   0.00000   0.00000   0.00000   0.00000
  14        5S         -0.00954   0.07227   0.00234  -0.03547  -0.00358
  15        5PX        -0.00076   0.01543  -0.00360   0.02307   0.00487
  16        5PY        -0.00177   0.00741   0.00004  -0.01080  -0.00128
  17        5PZ         0.00000   0.00000   0.00000   0.00000   0.00000
  18        6D 0       -0.00003  -0.00002   0.00035   0.00034   0.00073
  19        6D+1        0.00000   0.00000   0.00000   0.00000   0.00000
  20        6D-1        0.00000   0.00000   0.00000   0.00000   0.00000
  21        6D+2       -0.00001  -0.00003  -0.00025  -0.00021  -0.00055
  22        6D-2       -0.00002  -0.00007  -0.00110  -0.00091   0.00185
  23 2   C  1S         -0.00001  -0.00002   0.39791   0.39792  -0.00025
  24        2S          0.00004   0.00003   0.32751   0.32748  -0.00010
  25        2PX         0.00008   0.00005  -0.00030  -0.00031  -0.00023
  26        2PY         0.00004  -0.00003   0.00056  -0.00014  -0.00004
  27        2PZ         0.00000   0.00000   0.00000   0.00000   0.00000
  28        3S         -0.00025  -0.00022   0.01357   0.01358  -0.00048
  29        3PX        -0.00060  -0.00065   0.00163   0.00155   0.00146
  30        3PY        -0.00018   0.00015  -0.00167  -0.00004   0.00018
  31        3PZ         0.00000   0.00000   0.00000   0.00000   0.00000
  32        4S         -0.00752  -0.00676  -0.00706  -0.01649  -0.00150
  33        4PX         0.00012  -0.00066  -0.00009   0.00223  -0.00454
  34        4PY         0.00272   0.00210   0.00089  -0.00724   0.00036
  35        4PZ         0.00000   0.00000   0.00000   0.00000   0.00000
  36        5S          0.00156  -0.10146   0.02631   0.13783  -0.04257
  37        5PX        -0.00491   0.01740   0.01063   0.00190  -0.01146
  38        5PY        -0.00176   0.02835   0.00061   0.06459   0.00648
  39        5PZ         0.00000   0.00000   0.00000   0.00000   0.00000
  40        6D 0       -0.00001   0.00000  -0.00093  -0.00128   0.00008
  41        6D+1        0.00000   0.00000   0.00000   0.00000   0.00000
  42        6D-1        0.00000   0.00000   0.00000   0.00000   0.00000
  43        6D+2       -0.00016  -0.00008   0.00169   0.00074  -0.00016
  44        6D-2        0.00008   0.00041  -0.00027  -0.00008  -0.00051
  45 3   C  1S         -0.00001  -0.00002   0.39791  -0.39792  -0.00025
  46        2S          0.00004   0.00003   0.32751  -0.32748  -0.00010
  47        2PX         0.00008   0.00005  -0.00030   0.00031  -0.00023
  48        2PY        -0.00004   0.00003  -0.00056  -0.00014   0.00004
  49        2PZ         0.00000   0.00000   0.00000   0.00000   0.00000
  50        3S         -0.00025  -0.00022   0.01357  -0.01358  -0.00048
  51        3PX        -0.00060  -0.00065   0.00163  -0.00155   0.00146
  52        3PY         0.00018  -0.00015   0.00167  -0.00004  -0.00018
  53        3PZ         0.00000   0.00000   0.00000   0.00000   0.00000
  54        4S         -0.00752  -0.00676  -0.00706   0.01649  -0.00150
  55        4PX         0.00012  -0.00066  -0.00009  -0.00223  -0.00454
  56        4PY        -0.00272  -0.00210  -0.00089  -0.00724  -0.00036
  57        4PZ         0.00000   0.00000   0.00000   0.00000   0.00000
  58        5S          0.00156  -0.10146   0.02631  -0.13783  -0.04257
  59        5PX        -0.00491   0.01740   0.01063  -0.00190  -0.01146
  60        5PY         0.00176  -0.02835  -0.00061   0.06459  -0.00648
  61        5PZ         0.00000   0.00000   0.00000   0.00000   0.00000
  62        6D 0       -0.00001   0.00000  -0.00093   0.00128   0.00008
  63        6D+1        0.00000   0.00000   0.00000   0.00000   0.00000
  64        6D-1        0.00000   0.00000   0.00000   0.00000   0.00000
  65        6D+2       -0.00016  -0.00008   0.00169  -0.00074  -0.00016
  66        6D-2       -0.00008  -0.00041   0.00027  -0.00008   0.00051
  67 4   C  1S          0.00000  -0.00002   0.00682  -0.00735   0.03463
  68        2S          0.00002   0.00002   0.00573  -0.00610   0.02884
  69        2PX         0.00001   0.00006   0.00049  -0.00042  -0.00065
  70        2PY         0.00001   0.00000  -0.00021   0.00016  -0.00029
  71        2PZ         0.00000   0.00000   0.00000   0.00000   0.00000
  72        3S         -0.00017  -0.00026   0.00009  -0.00034   0.00019
  73        3PX        -0.00006  -0.00038  -0.00190   0.00159   0.00355
  74        3PY        -0.00002   0.00001   0.00067  -0.00028   0.00160
  75        3PZ         0.00000   0.00000   0.00000   0.00000   0.00000
  76        4S          0.00260   0.00191   0.00017  -0.00378  -0.00381
  77        4PX         0.00208   0.00255   0.00136   0.00099  -0.00111
  78        4PY        -0.00017   0.00041  -0.00017   0.00459   0.00121
  79        4PZ         0.00000   0.00000   0.00000   0.00000   0.00000
  80        5S         -0.00954   0.07227   0.00234   0.03547  -0.00358
  81        5PX        -0.00076   0.01543  -0.00360  -0.02307   0.00487
  82        5PY         0.00177  -0.00741  -0.00004  -0.01080   0.00128
  83        5PZ         0.00000   0.00000   0.00000   0.00000   0.00000
  84        6D 0       -0.00003  -0.00002   0.00035  -0.00034   0.00073
  85        6D+1        0.00000   0.00000   0.00000   0.00000   0.00000
  86        6D-1        0.00000   0.00000   0.00000   0.00000   0.00000
  87        6D+2       -0.00001  -0.00003  -0.00025   0.00021  -0.00055
  88        6D-2        0.00002   0.00007   0.00110  -0.00091  -0.00185
  89 5   C  1S          0.00000  -0.00001  -0.00037  -0.00037   0.39647
  90        2S          0.00001   0.00001  -0.00019  -0.00033   0.32646
  91        2PX         0.00001   0.00002   0.00005  -0.00006  -0.00045
  92        2PY         0.00001  -0.00001   0.00005  -0.00012  -0.00056
  93        2PZ         0.00000   0.00000   0.00000   0.00000   0.00000
  94        3S         -0.00003  -0.00008  -0.00067  -0.00005   0.01320
  95        3PX        -0.00007  -0.00013  -0.00069   0.00059   0.00290
  96        3PY        -0.00006  -0.00001  -0.00030   0.00073   0.00188
  97        3PZ         0.00000   0.00000   0.00000   0.00000   0.00000
  98        4S          0.00083   0.00127   0.00092   0.00627  -0.00642
  99        4PX         0.00000   0.00030   0.00060   0.00301  -0.00062
 100        4PY         0.00056   0.00038   0.00025  -0.00142  -0.00033
 101        4PZ         0.00000   0.00000   0.00000   0.00000   0.00000
 102        5S          0.00204  -0.00280  -0.00337  -0.03598   0.00829
 103        5PX         0.00045  -0.00144  -0.00005  -0.01293   0.00242
 104        5PY        -0.00007   0.00183  -0.00168  -0.01458   0.00082
 105        5PZ         0.00000   0.00000   0.00000   0.00000   0.00000
 106        6D 0        0.00000   0.00002   0.00004  -0.00008  -0.00061
 107        6D+1        0.00000   0.00000   0.00000   0.00000   0.00000
 108        6D-1        0.00000   0.00000   0.00000   0.00000   0.00000
 109        6D+2       -0.00001  -0.00004  -0.00008   0.00028   0.00091
 110        6D-2       -0.00001  -0.00004  -0.00033   0.00038   0.00120
 111 6   C  1S          0.00000  -0.00001  -0.00037   0.00037   0.39647
 112        2S          0.00001   0.00001  -0.00019   0.00033   0.32646
 113        2PX         0.00001   0.00002   0.00005   0.00006  -0.00045
 114        2PY        -0.00001   0.00001  -0.00005  -0.00012   0.00056
 115        2PZ         0.00000   0.00000   0.00000   0.00000   0.00000
 116        3S         -0.00003  -0.00008  -0.00067   0.00005   0.01320
 117        3PX        -0.00007  -0.00013  -0.00069  -0.00059   0.00290
 118        3PY         0.00006   0.00001   0.00030   0.00073  -0.00188
 119        3PZ         0.00000   0.00000   0.00000   0.00000   0.00000
 120        4S          0.00083   0.00127   0.00092  -0.00627  -0.00642
 121        4PX         0.00000   0.00030   0.00060  -0.00301  -0.00062
 122        4PY        -0.00056  -0.00038  -0.00025  -0.00142   0.00033
 123        4PZ         0.00000   0.00000   0.00000   0.00000   0.00000
 124        5S          0.00204  -0.00280  -0.00337   0.03598   0.00829
 125        5PX         0.00045  -0.00144  -0.00005   0.01293   0.00242
 126        5PY         0.00007  -0.00183   0.00168  -0.01458  -0.00082
 127        5PZ         0.00000   0.00000   0.00000   0.00000   0.00000
 128        6D 0        0.00000   0.00002   0.00004   0.00008  -0.00061
 129        6D+1        0.00000   0.00000   0.00000   0.00000   0.00000
 130        6D-1        0.00000   0.00000   0.00000   0.00000   0.00000
 131        6D+2       -0.00001  -0.00004  -0.00008  -0.00028   0.00091
 132        6D-2        0.00001   0.00004   0.00033   0.00038  -0.00120
 133 7   H  1S          0.00000   0.00003  -0.00006  -0.00008  -0.00014
 134        2S         -0.00023  -0.00042  -0.00027   0.00052  -0.00044
 135        3S          0.00010  -0.00006   0.00090   0.00244   0.00086
 136 8   H  1S          0.00000   0.00003  -0.00006   0.00008  -0.00014
 137        2S         -0.00023  -0.00042  -0.00027  -0.00052  -0.00044
 138        3S          0.00010  -0.00006   0.00090  -0.00244   0.00086
 139 9   H  1S          0.00001  -0.00001  -0.00009   0.00000   0.00012
 140        2S         -0.00015  -0.00008  -0.00004   0.00035  -0.00055
 141        3S          0.00000   0.00002   0.00041   0.00078   0.00215
 142 10  H  1S          0.00001  -0.00001  -0.00009   0.00000   0.00012
 143        2S         -0.00015  -0.00008  -0.00004  -0.00035  -0.00055
 144        3S          0.00000   0.00002   0.00041  -0.00078   0.00215
 145 11  C  1S         -0.00002   0.56296   0.00000   0.00000   0.00002
 146        2S          0.00006   0.46334   0.00005   0.00000   0.00004
 147        2PX         0.00045   0.00030  -0.00008   0.00000  -0.00005
 148        2PY         0.00000   0.00000   0.00000  -0.00018   0.00000
 149        2PZ         0.00000   0.00000   0.00000   0.00000   0.00000
 150        3S          0.00103   0.01883  -0.00028   0.00000  -0.00014
 151        3PX        -0.00139   0.00171   0.00062   0.00000   0.00026
 152        3PY         0.00000   0.00000   0.00000   0.00085   0.00000
 153        3PZ         0.00000   0.00000   0.00000   0.00000   0.00000
 154        4S          0.00191  -0.01431  -0.00001   0.00000  -0.00171
 155        4PX         0.01687   0.00984  -0.00406   0.00000   0.00023
 156        4PY         0.00000   0.00000   0.00000   0.00020   0.00000
 157        4PZ         0.00000   0.00000   0.00000   0.00000   0.00000
 158        5S         -0.01338  -0.07005  -0.00898   0.00000  -0.02706
 159        5PX         0.00035   0.02368   0.00410   0.00000   0.00549
 160        5PY         0.00000   0.00000   0.00000  -0.00693   0.00000
 161        5PZ         0.00000   0.00000   0.00000   0.00000   0.00000
 162        6D 0        0.00032  -0.00149   0.00000   0.00000   0.00000
 163        6D+1        0.00000   0.00000   0.00000   0.00000   0.00000
 164        6D-1        0.00000   0.00000   0.00000   0.00000   0.00000
 165        6D+2       -0.00090   0.00162   0.00062   0.00000   0.00006
 166        6D-2        0.00000   0.00000   0.00000  -0.00045   0.00000
 167 12  O  1S          0.55130  -0.00010   0.00000   0.00000   0.00000
 168        2S          0.46967  -0.00010   0.00004   0.00000   0.00001
 169        2PX        -0.00116  -0.00054  -0.00007   0.00000  -0.00002
 170        2PY         0.00000   0.00000   0.00000  -0.00001   0.00000
 171        2PZ         0.00000   0.00000   0.00000   0.00000   0.00000
 172        3S          0.01449   0.00095  -0.00035   0.00000  -0.00006
 173        3PX        -0.00090   0.00171   0.00041   0.00000   0.00010
 174        3PY         0.00000   0.00000   0.00000   0.00005   0.00000
 175        3PZ         0.00000   0.00000   0.00000   0.00000   0.00000
 176        4S         -0.01565  -0.00934   0.00090   0.00000   0.00004
 177        4PX         0.00364   0.00406  -0.00057   0.00000  -0.00019
 178        4PY         0.00000   0.00000   0.00000  -0.00005   0.00000
 179        4PZ         0.00000   0.00000   0.00000   0.00000   0.00000
 180        5S         -0.00418   0.00605   0.00554   0.00000   0.00100
 181        5PX         0.00245  -0.00573  -0.00249   0.00000  -0.00026
 182        5PY         0.00000   0.00000   0.00000  -0.00010   0.00000
 183        5PZ         0.00000   0.00000   0.00000   0.00000   0.00000
 184        6D 0       -0.00016   0.00062   0.00003   0.00000   0.00000
 185        6D+1        0.00000   0.00000   0.00000   0.00000   0.00000
 186        6D-1        0.00000   0.00000   0.00000   0.00000   0.00000
 187        6D+2        0.00025  -0.00100  -0.00012   0.00000  -0.00002
 188        6D-2        0.00000   0.00000   0.00000  -0.00002   0.00000
 189 13  C  1S         -0.00001   0.00079   0.00543   0.00565  -0.00017
 190        2S          0.00004   0.00069   0.00479   0.00488  -0.00006
 191        2PX         0.00010   0.00029  -0.00058  -0.00056  -0.00006
 192        2PY        -0.00003   0.00039   0.00017   0.00018  -0.00003
 193        2PZ         0.00000   0.00000   0.00000   0.00000   0.00000
 194        3S         -0.00038   0.00015  -0.00079  -0.00025  -0.00061
 195        3PX        -0.00040  -0.00086   0.00309   0.00273   0.00047
 196        3PY         0.00014  -0.00084  -0.00103  -0.00081   0.00002
 197        3PZ         0.00000   0.00000   0.00000   0.00000   0.00000
 198        4S          0.00879   0.00721  -0.00225  -0.00305   0.00517
 199        4PX        -0.00355  -0.00253  -0.00063   0.00041  -0.00221
 200        4PY         0.00495   0.00421  -0.00136   0.00161   0.00169
 201        4PZ         0.00000   0.00000   0.00000   0.00000   0.00000
 202        5S          0.01235   0.06625  -0.02130  -0.00938   0.05124
 203        5PX         0.00139  -0.01306   0.00298  -0.00733  -0.00641
 204        5PY         0.00338   0.00565  -0.00287  -0.00839   0.00670
 205        5PZ         0.00000   0.00000   0.00000   0.00000   0.00000
 206        6D 0       -0.00007   0.00035   0.00078   0.00082  -0.00002
 207        6D+1        0.00000   0.00000   0.00000   0.00000   0.00000
 208        6D-1        0.00000   0.00000   0.00000   0.00000   0.00000
 209        6D+2       -0.00012   0.00063  -0.00110  -0.00090  -0.00019
 210        6D-2       -0.00033  -0.00073   0.00114   0.00111   0.00005
 211 14  H  1S         -0.00016  -0.00010  -0.00006  -0.00004  -0.00006
 212        2S          0.00093   0.00057  -0.00055   0.00014   0.00011
 213        3S          0.00141   0.00108   0.00068   0.00171   0.00022
 214 15  C  1S         -0.00001   0.00079   0.00543  -0.00565  -0.00017
 215        2S          0.00004   0.00069   0.00479  -0.00488  -0.00006
 216        2PX         0.00010   0.00029  -0.00058   0.00056  -0.00006
 217        2PY         0.00003  -0.00039  -0.00017   0.00018   0.00003
 218        2PZ         0.00000   0.00000   0.00000   0.00000   0.00000
 219        3S         -0.00038   0.00015  -0.00079   0.00025  -0.00061
 220        3PX        -0.00040  -0.00086   0.00309  -0.00273   0.00047
 221        3PY        -0.00014   0.00084   0.00103  -0.00081  -0.00002
 222        3PZ         0.00000   0.00000   0.00000   0.00000   0.00000
 223        4S          0.00879   0.00721  -0.00225   0.00305   0.00517
 224        4PX        -0.00355  -0.00253  -0.00063  -0.00041  -0.00221
 225        4PY        -0.00495  -0.00421   0.00136   0.00161  -0.00169
 226        4PZ         0.00000   0.00000   0.00000   0.00000   0.00000
 227        5S          0.01235   0.06625  -0.02130   0.00938   0.05124
 228        5PX         0.00139  -0.01306   0.00298   0.00733  -0.00641
 229        5PY        -0.00338  -0.00565   0.00287  -0.00839  -0.00670
 230        5PZ         0.00000   0.00000   0.00000   0.00000   0.00000
 231        6D 0       -0.00007   0.00035   0.00078  -0.00082  -0.00002
 232        6D+1        0.00000   0.00000   0.00000   0.00000   0.00000
 233        6D-1        0.00000   0.00000   0.00000   0.00000   0.00000
 234        6D+2       -0.00012   0.00063  -0.00110   0.00090  -0.00019
 235        6D-2        0.00033   0.00073  -0.00114   0.00111  -0.00005
 236 16  H  1S         -0.00016  -0.00010  -0.00006   0.00004  -0.00006
 237        2S          0.00093   0.00057  -0.00055  -0.00014   0.00011
 238        3S          0.00141   0.00108   0.00068  -0.00171   0.00022
                           6         7         8         9        10
                           O         O         O         O         O
     Eigenvalues --   -10.20560 -10.20178 -10.20177 -10.18561 -10.18560
   1 1   C  1S         -0.03889   0.39604   0.39643   0.00014   0.00031
   2        2S         -0.03224   0.32590   0.32634   0.00012   0.00034
   3        2PX         0.00051   0.00033   0.00030   0.00007   0.00014
   4        2PY        -0.00019  -0.00032  -0.00031  -0.00002   0.00000
   5        2PZ         0.00000   0.00000   0.00000   0.00000   0.00000
   6        3S         -0.00052   0.01423   0.01327   0.00018  -0.00051
   7        3PX        -0.00249  -0.00175  -0.00141  -0.00037  -0.00082
   8        3PY         0.00071   0.00243   0.00214   0.00011  -0.00009
   9        3PZ         0.00000   0.00000   0.00000   0.00000   0.00000
  10        4S         -0.01003  -0.02215  -0.01293  -0.00163   0.00372
  11        4PX        -0.00051  -0.00035  -0.00109  -0.00025   0.00056
  12        4PY        -0.00715  -0.00879  -0.00422  -0.00162   0.00197
  13        4PZ         0.00000   0.00000   0.00000   0.00000   0.00000
  14        5S         -0.01737   0.01624   0.00720  -0.04503   0.05724
  15        5PX        -0.01170   0.02496  -0.00355   0.02801   0.00817
  16        5PY        -0.00110  -0.00245   0.00265  -0.01537   0.00661
  17        5PZ         0.00000   0.00000   0.00000   0.00000   0.00000
  18        6D 0       -0.00054  -0.00100  -0.00104   0.00005  -0.00001
  19        6D+1        0.00000   0.00000   0.00000   0.00000   0.00000
  20        6D-1        0.00000   0.00000   0.00000   0.00000   0.00000
  21        6D+2        0.00041   0.00091   0.00087  -0.00028  -0.00035
  22        6D-2       -0.00120  -0.00082  -0.00067  -0.00014  -0.00031
  23 2   C  1S          0.00110  -0.00732  -0.00688  -0.00579  -0.00560
  24        2S          0.00089  -0.00598  -0.00557  -0.00453  -0.00429
  25        2PX         0.00010  -0.00043  -0.00050   0.00073   0.00066
  26        2PY         0.00012  -0.00025  -0.00019  -0.00030  -0.00014
  27        2PZ         0.00000   0.00000   0.00000   0.00000   0.00000
  28        3S         -0.00017  -0.00014  -0.00024  -0.00069  -0.00131
  29        3PX        -0.00053   0.00150   0.00192  -0.00371  -0.00356
  30        3PY        -0.00063   0.00083   0.00050   0.00161   0.00062
  31        3PZ         0.00000   0.00000   0.00000   0.00000   0.00000
  32        4S          0.00523   0.00645   0.00182   0.00125   0.00633
  33        4PX        -0.00740  -0.00979  -0.00549   0.00141   0.00726
  34        4PY         0.00054   0.00094  -0.00099  -0.00071  -0.00048
  35        4PZ         0.00000   0.00000   0.00000   0.00000   0.00000
  36        5S         -0.00825   0.05932  -0.00296   0.14829  -0.05355
  37        5PX         0.01686  -0.02990  -0.00587   0.01849   0.02265
  38        5PY        -0.04437   0.08652  -0.00185   0.06814   0.01700
  39        5PZ         0.00000   0.00000   0.00000   0.00000   0.00000
  40        6D 0       -0.00014   0.00039   0.00042   0.00085   0.00076
  41        6D+1        0.00000   0.00000   0.00000   0.00000   0.00000
  42        6D-1        0.00000   0.00000   0.00000   0.00000   0.00000
  43        6D+2        0.00040  -0.00050  -0.00022  -0.00171  -0.00097
  44        6D-2        0.00044  -0.00080  -0.00077   0.00100   0.00116
  45 3   C  1S         -0.00110   0.00732  -0.00688   0.00579  -0.00560
  46        2S         -0.00089   0.00598  -0.00557   0.00453  -0.00429
  47        2PX        -0.00010   0.00043  -0.00050  -0.00073   0.00066
  48        2PY         0.00012  -0.00025   0.00019  -0.00030   0.00014
  49        2PZ         0.00000   0.00000   0.00000   0.00000   0.00000
  50        3S          0.00017   0.00014  -0.00024   0.00069  -0.00131
  51        3PX         0.00053  -0.00150   0.00192   0.00371  -0.00356
  52        3PY        -0.00063   0.00083  -0.00050   0.00161  -0.00062
  53        3PZ         0.00000   0.00000   0.00000   0.00000   0.00000
  54        4S         -0.00523  -0.00645   0.00182  -0.00125   0.00633
  55        4PX         0.00740   0.00979  -0.00549  -0.00141   0.00726
  56        4PY         0.00054   0.00094   0.00099  -0.00071   0.00048
  57        4PZ         0.00000   0.00000   0.00000   0.00000   0.00000
  58        5S          0.00825  -0.05932  -0.00296  -0.14829  -0.05355
  59        5PX        -0.01686   0.02990  -0.00587  -0.01849   0.02265
  60        5PY        -0.04437   0.08652   0.00185   0.06814  -0.01700
  61        5PZ         0.00000   0.00000   0.00000   0.00000   0.00000
  62        6D 0        0.00014  -0.00039   0.00042  -0.00085   0.00076
  63        6D+1        0.00000   0.00000   0.00000   0.00000   0.00000
  64        6D-1        0.00000   0.00000   0.00000   0.00000   0.00000
  65        6D+2       -0.00040   0.00050  -0.00022   0.00171  -0.00097
  66        6D-2        0.00044  -0.00080   0.00077   0.00100  -0.00116
  67 4   C  1S          0.03889  -0.39604   0.39643  -0.00014   0.00031
  68        2S          0.03224  -0.32590   0.32634  -0.00012   0.00034
  69        2PX        -0.00051  -0.00033   0.00030  -0.00007   0.00014
  70        2PY        -0.00019  -0.00032   0.00031  -0.00002   0.00000
  71        2PZ         0.00000   0.00000   0.00000   0.00000   0.00000
  72        3S          0.00052  -0.01423   0.01327  -0.00018  -0.00051
  73        3PX         0.00249   0.00175  -0.00141   0.00037  -0.00082
  74        3PY         0.00071   0.00243  -0.00214   0.00011   0.00009
  75        3PZ         0.00000   0.00000   0.00000   0.00000   0.00000
  76        4S          0.01003   0.02215  -0.01293   0.00163   0.00372
  77        4PX         0.00051   0.00035  -0.00109   0.00025   0.00056
  78        4PY        -0.00715  -0.00879   0.00422  -0.00162  -0.00197
  79        4PZ         0.00000   0.00000   0.00000   0.00000   0.00000
  80        5S          0.01737  -0.01624   0.00720   0.04503   0.05724
  81        5PX         0.01170  -0.02496  -0.00355  -0.02801   0.00817
  82        5PY        -0.00110  -0.00245  -0.00265  -0.01537  -0.00661
  83        5PZ         0.00000   0.00000   0.00000   0.00000   0.00000
  84        6D 0        0.00054   0.00100  -0.00104  -0.00005  -0.00001
  85        6D+1        0.00000   0.00000   0.00000   0.00000   0.00000
  86        6D-1        0.00000   0.00000   0.00000   0.00000   0.00000
  87        6D+2       -0.00041  -0.00091   0.00087   0.00028  -0.00035
  88        6D-2       -0.00120  -0.00082   0.00067  -0.00014   0.00031
  89 5   C  1S          0.39612   0.03904  -0.03478  -0.00002   0.00012
  90        2S          0.32603   0.03190  -0.02832  -0.00002   0.00017
  91        2PX        -0.00030  -0.00054   0.00050  -0.00001   0.00006
  92        2PY         0.00039  -0.00049   0.00031  -0.00002  -0.00001
  93        2PZ         0.00000   0.00000   0.00000   0.00000   0.00000
  94        3S          0.01336   0.00220  -0.00214   0.00011  -0.00048
  95        3PX         0.00188   0.00274  -0.00258   0.00009  -0.00045
  96        3PY        -0.00131   0.00271  -0.00135   0.00012   0.00002
  97        3PZ         0.00000   0.00000   0.00000   0.00000   0.00000
  98        4S         -0.01902  -0.01096   0.00173  -0.00225  -0.00095
  99        4PX        -0.00753  -0.00693   0.00201  -0.00141   0.00060
 100        4PY         0.00532   0.00185  -0.00026   0.00103  -0.00066
 101        4PZ         0.00000   0.00000   0.00000   0.00000   0.00000
 102        5S         -0.00207   0.01368  -0.01287  -0.07368  -0.00483
 103        5PX         0.00097  -0.00338  -0.00240  -0.01994  -0.00083
 104        5PY         0.00502  -0.01622  -0.00164  -0.01188  -0.00015
 105        5PZ         0.00000   0.00000   0.00000   0.00000   0.00000
 106        6D 0       -0.00124  -0.00077   0.00083   0.00001  -0.00003
 107        6D+1        0.00000   0.00000   0.00000   0.00000   0.00000
 108        6D-1        0.00000   0.00000   0.00000   0.00000   0.00000
 109        6D+2       -0.00091   0.00117  -0.00047   0.00011  -0.00010
 110        6D-2        0.00092   0.00152  -0.00133   0.00001  -0.00009
 111 6   C  1S         -0.39612  -0.03904  -0.03478   0.00002   0.00012
 112        2S         -0.32603  -0.03190  -0.02832   0.00002   0.00017
 113        2PX         0.00030   0.00054   0.00050   0.00001   0.00006
 114        2PY         0.00039  -0.00049  -0.00031  -0.00002   0.00001
 115        2PZ         0.00000   0.00000   0.00000   0.00000   0.00000
 116        3S         -0.01336  -0.00220  -0.00214  -0.00011  -0.00048
 117        3PX        -0.00188  -0.00274  -0.00258  -0.00009  -0.00045
 118        3PY        -0.00131   0.00271   0.00135   0.00012  -0.00002
 119        3PZ         0.00000   0.00000   0.00000   0.00000   0.00000
 120        4S          0.01902   0.01096   0.00173   0.00225  -0.00095
 121        4PX         0.00753   0.00693   0.00201   0.00141   0.00060
 122        4PY         0.00532   0.00185   0.00026   0.00103   0.00066
 123        4PZ         0.00000   0.00000   0.00000   0.00000   0.00000
 124        5S          0.00207  -0.01368  -0.01287   0.07368  -0.00483
 125        5PX        -0.00097   0.00338  -0.00240   0.01994  -0.00083
 126        5PY         0.00502  -0.01622   0.00164  -0.01188   0.00015
 127        5PZ         0.00000   0.00000   0.00000   0.00000   0.00000
 128        6D 0        0.00124   0.00077   0.00083  -0.00001  -0.00003
 129        6D+1        0.00000   0.00000   0.00000   0.00000   0.00000
 130        6D-1        0.00000   0.00000   0.00000   0.00000   0.00000
 131        6D+2        0.00091  -0.00117  -0.00047  -0.00011  -0.00010
 132        6D-2        0.00092   0.00152   0.00133   0.00001   0.00009
 133 7   H  1S          0.00018   0.00036   0.00027   0.00001  -0.00011
 134        2S         -0.00078  -0.00128  -0.00086  -0.00051   0.00018
 135        3S         -0.00245  -0.00003   0.00075   0.00054   0.00056
 136 8   H  1S         -0.00018  -0.00036   0.00027  -0.00001  -0.00011
 137        2S          0.00078   0.00128  -0.00086   0.00051   0.00018
 138        3S          0.00245   0.00003   0.00075  -0.00054   0.00056
 139 9   H  1S          0.00042   0.00019  -0.00023   0.00003  -0.00008
 140        2S         -0.00152  -0.00069   0.00011  -0.00035   0.00032
 141        3S         -0.00065  -0.00234   0.00138   0.00008   0.00041
 142 10  H  1S         -0.00042  -0.00019  -0.00023  -0.00003  -0.00008
 143        2S          0.00152   0.00069   0.00011   0.00035   0.00032
 144        3S          0.00065   0.00234   0.00138  -0.00008   0.00041
 145 11  C  1S          0.00000   0.00000   0.00002   0.00000  -0.00117
 146        2S          0.00000   0.00000   0.00006   0.00000  -0.00091
 147        2PX         0.00000   0.00000  -0.00004   0.00000  -0.00054
 148        2PY         0.00001  -0.00002   0.00000  -0.00055   0.00000
 149        2PZ         0.00000   0.00000   0.00000   0.00000   0.00000
 150        3S          0.00000   0.00000  -0.00030   0.00000   0.00019
 151        3PX         0.00000   0.00000   0.00028   0.00000   0.00150
 152        3PY        -0.00001   0.00012   0.00000   0.00123   0.00000
 153        3PZ         0.00000   0.00000   0.00000   0.00000   0.00000
 154        4S          0.00000   0.00000  -0.00187   0.00000   0.00744
 155        4PX         0.00000   0.00000  -0.00083   0.00000  -0.01128
 156        4PY         0.00140  -0.00014   0.00000  -0.00302   0.00000
 157        4PZ         0.00000   0.00000   0.00000   0.00000   0.00000
 158        5S          0.00000   0.00000   0.00616   0.00000  -0.05732
 159        5PX         0.00000   0.00000  -0.00194   0.00000   0.01679
 160        5PY         0.01289  -0.01737   0.00000  -0.00765   0.00000
 161        5PZ         0.00000   0.00000   0.00000   0.00000   0.00000
 162        6D 0        0.00000   0.00000   0.00000   0.00000   0.00053
 163        6D+1        0.00000   0.00000   0.00000   0.00000   0.00000
 164        6D-1        0.00000   0.00000   0.00000   0.00000   0.00000
 165        6D+2        0.00000   0.00000   0.00009   0.00000   0.00016
 166        6D-2        0.00002  -0.00008   0.00000  -0.00121   0.00000
 167 12  O  1S          0.00000   0.00000   0.00000   0.00000   0.00001
 168        2S          0.00000   0.00000   0.00001   0.00000   0.00004
 169        2PX         0.00000   0.00000  -0.00002   0.00000  -0.00005
 170        2PY         0.00000  -0.00001   0.00000  -0.00003   0.00000
 171        2PZ         0.00000   0.00000   0.00000   0.00000   0.00000
 172        3S          0.00000   0.00000  -0.00014   0.00000  -0.00033
 173        3PX         0.00000   0.00000   0.00010   0.00000   0.00029
 174        3PY         0.00001   0.00002   0.00000   0.00013   0.00000
 175        3PZ         0.00000   0.00000   0.00000   0.00000   0.00000
 176        4S          0.00000   0.00000   0.00064   0.00000   0.00203
 177        4PX         0.00000   0.00000  -0.00031   0.00000  -0.00045
 178        4PY        -0.00016  -0.00004   0.00000   0.00043   0.00000
 179        4PZ         0.00000   0.00000   0.00000   0.00000   0.00000
 180        5S          0.00000   0.00000   0.00062   0.00000   0.00980
 181        5PX         0.00000   0.00000  -0.00009   0.00000  -0.00433
 182        5PY        -0.00045   0.00033   0.00000   0.00037   0.00000
 183        5PZ         0.00000   0.00000   0.00000   0.00000   0.00000
 184        6D 0        0.00000   0.00000   0.00001   0.00000   0.00001
 185        6D+1        0.00000   0.00000   0.00000   0.00000   0.00000
 186        6D-1        0.00000   0.00000   0.00000   0.00000   0.00000
 187        6D+2        0.00000   0.00000  -0.00002   0.00000  -0.00013
 188        6D-2        0.00002  -0.00001   0.00000  -0.00017   0.00000
 189 13  C  1S          0.00005  -0.00024  -0.00041   0.39795   0.39795
 190        2S          0.00003  -0.00019  -0.00025   0.32756   0.32762
 191        2PX         0.00005  -0.00004  -0.00005   0.00032   0.00036
 192        2PY         0.00003  -0.00003  -0.00002  -0.00020  -0.00020
 193        2PZ         0.00000   0.00000   0.00000   0.00000   0.00000
 194        3S          0.00001   0.00010  -0.00057   0.01386   0.01375
 195        3PX        -0.00029   0.00025   0.00048  -0.00262  -0.00256
 196        3PY        -0.00012   0.00014  -0.00002   0.00192   0.00158
 197        3PZ         0.00000   0.00000   0.00000   0.00000   0.00000
 198        4S          0.00456   0.00437   0.00395  -0.01184  -0.02160
 199        4PX        -0.00040  -0.00139  -0.00110   0.00060   0.00395
 200        4PY         0.00189   0.00021   0.00189  -0.00249  -0.00875
 201        4PZ         0.00000   0.00000   0.00000   0.00000   0.00000
 202        5S         -0.03503   0.05665   0.00551  -0.02225   0.02906
 203        5PX         0.01972  -0.02904  -0.00123  -0.00590  -0.00502
 204        5PY         0.00517  -0.00889   0.00040  -0.00759   0.00288
 205        5PZ         0.00000   0.00000   0.00000   0.00000   0.00000
 206        6D 0        0.00001   0.00005  -0.00001  -0.00093  -0.00086
 207        6D+1        0.00000   0.00000   0.00000   0.00000   0.00000
 208        6D-1        0.00000   0.00000   0.00000   0.00000   0.00000
 209        6D+2        0.00007  -0.00022  -0.00030   0.00096   0.00080
 210        6D-2        0.00006   0.00004   0.00008  -0.00063  -0.00075
 211 14  H  1S         -0.00003   0.00001  -0.00008   0.00018   0.00020
 212        2S          0.00032  -0.00029   0.00018  -0.00046  -0.00145
 213        3S          0.00009   0.00056   0.00054   0.00171  -0.00088
 214 15  C  1S         -0.00005   0.00024  -0.00041  -0.39795   0.39795
 215        2S         -0.00003   0.00019  -0.00025  -0.32756   0.32762
 216        2PX        -0.00005   0.00004  -0.00005  -0.00032   0.00036
 217        2PY         0.00003  -0.00003   0.00002  -0.00020   0.00020
 218        2PZ         0.00000   0.00000   0.00000   0.00000   0.00000
 219        3S         -0.00001  -0.00010  -0.00057  -0.01386   0.01375
 220        3PX         0.00029  -0.00025   0.00048   0.00262  -0.00256
 221        3PY        -0.00012   0.00014   0.00002   0.00192  -0.00158
 222        3PZ         0.00000   0.00000   0.00000   0.00000   0.00000
 223        4S         -0.00456  -0.00437   0.00395   0.01184  -0.02160
 224        4PX         0.00040   0.00139  -0.00110  -0.00060   0.00395
 225        4PY         0.00189   0.00021  -0.00189  -0.00249   0.00875
 226        4PZ         0.00000   0.00000   0.00000   0.00000   0.00000
 227        5S          0.03503  -0.05665   0.00551   0.02225   0.02906
 228        5PX        -0.01972   0.02904  -0.00123   0.00590  -0.00502
 229        5PY         0.00517  -0.00889  -0.00040  -0.00759  -0.00288
 230        5PZ         0.00000   0.00000   0.00000   0.00000   0.00000
 231        6D 0       -0.00001  -0.00005  -0.00001   0.00093  -0.00086
 232        6D+1        0.00000   0.00000   0.00000   0.00000   0.00000
 233        6D-1        0.00000   0.00000   0.00000   0.00000   0.00000
 234        6D+2       -0.00007   0.00022  -0.00030  -0.00096   0.00080
 235        6D-2        0.00006   0.00004  -0.00008  -0.00063   0.00075
 236 16  H  1S          0.00003  -0.00001  -0.00008  -0.00018   0.00020
 237        2S         -0.00032   0.00029   0.00018   0.00046  -0.00145
 238        3S         -0.00009  -0.00056   0.00054  -0.00171  -0.00088
                          11        12        13        14        15
                           O         O         O         O         O
     Eigenvalues --    -1.06348  -0.89919  -0.83551  -0.79152  -0.72161
   1 1   C  1S         -0.00052  -0.03752  -0.03803   0.06382  -0.03364
   2        2S         -0.00081  -0.05788  -0.05902   0.09907  -0.05244
   3        2PX         0.00043   0.00472  -0.02691  -0.00023  -0.04149
   4        2PY         0.00033   0.02106   0.02131  -0.01457   0.00866
   5        2PZ         0.00000   0.00000   0.00000   0.00000   0.00000
   6        3S          0.00277   0.15001   0.15431  -0.26095   0.13969
   7        3PX         0.00032   0.00847  -0.03874  -0.00441  -0.05735
   8        3PY         0.00015   0.02623   0.02683  -0.01020   0.00748
   9        3PZ         0.00000   0.00000   0.00000   0.00000   0.00000
  10        4S         -0.01536   0.07152   0.07474  -0.14522   0.07207
  11        4PX        -0.00945   0.00221  -0.01231  -0.01054  -0.02574
  12        4PY        -0.00361   0.00682   0.00434   0.00185  -0.00169
  13        4PZ         0.00000   0.00000   0.00000   0.00000   0.00000
  14        5S         -0.00742  -0.15953   0.25274  -0.12262  -0.27875
  15        5PX         0.00208  -0.04301   0.06578   0.16838   0.04580
  16        5PY         0.00073  -0.01516   0.02636  -0.04196  -0.06453
  17        5PZ         0.00000   0.00000   0.00000   0.00000   0.00000
  18        6D 0        0.00012  -0.00742  -0.00716   0.01040  -0.00432
  19        6D+1        0.00000   0.00000   0.00000   0.00000   0.00000
  20        6D-1        0.00000   0.00000   0.00000   0.00000   0.00000
  21        6D+2        0.00009   0.00013  -0.00179  -0.00123  -0.00422
  22        6D-2       -0.00011   0.00013  -0.00634   0.00092  -0.00371
  23 2   C  1S         -0.00356  -0.06130   0.01895   0.04418   0.03000
  24        2S         -0.00557  -0.09473   0.02927   0.06854   0.04664
  25        2PX         0.00289   0.00920  -0.04889   0.00673  -0.05195
  26        2PY         0.00087   0.01386  -0.00946   0.03666   0.02408
  27        2PZ         0.00000   0.00000   0.00000   0.00000   0.00000
  28        3S          0.01467   0.24603  -0.07589  -0.18162  -0.12539
  29        3PX         0.00729   0.00807  -0.07009   0.01366  -0.07345
  30        3PY         0.00264   0.02384  -0.01559   0.05792   0.03680
  31        3PZ         0.00000   0.00000   0.00000   0.00000   0.00000
  32        4S          0.03169   0.10314  -0.03295  -0.10316  -0.05847
  33        4PX        -0.00766  -0.00182  -0.02364   0.00627  -0.02899
  34        4PY        -0.01160   0.01060  -0.00609  -0.00701   0.00193
  35        4PZ         0.00000   0.00000   0.00000   0.00000   0.00000
  36        5S          0.01575   0.23372  -0.02375   0.69717   0.56480
  37        5PX        -0.00144  -0.05136   0.20435  -0.05403   0.18735
  38        5PY        -0.00334  -0.09567   0.05030   0.48560  -0.01236
  39        5PZ         0.00000   0.00000   0.00000   0.00000   0.00000
  40        6D 0       -0.00124  -0.01267   0.00300   0.00618   0.00239
  41        6D+1        0.00000   0.00000   0.00000   0.00000   0.00000
  42        6D-1        0.00000   0.00000   0.00000   0.00000   0.00000
  43        6D+2        0.00166   0.00252   0.00105  -0.01333  -0.00695
  44        6D-2        0.00054   0.00253  -0.00027  -0.00317   0.01038
  45 3   C  1S         -0.00356  -0.06130   0.01895  -0.04418  -0.03000
  46        2S         -0.00557  -0.09473   0.02927  -0.06854  -0.04664
  47        2PX         0.00289   0.00920  -0.04889  -0.00673   0.05195
  48        2PY        -0.00087  -0.01386   0.00946   0.03666   0.02408
  49        2PZ         0.00000   0.00000   0.00000   0.00000   0.00000
  50        3S          0.01467   0.24603  -0.07589   0.18162   0.12539
  51        3PX         0.00729   0.00807  -0.07009  -0.01366   0.07345
  52        3PY        -0.00264  -0.02384   0.01559   0.05792   0.03680
  53        3PZ         0.00000   0.00000   0.00000   0.00000   0.00000
  54        4S          0.03169   0.10314  -0.03295   0.10316   0.05847
  55        4PX        -0.00766  -0.00182  -0.02364  -0.00627   0.02899
  56        4PY         0.01160  -0.01060   0.00609  -0.00701   0.00193
  57        4PZ         0.00000   0.00000   0.00000   0.00000   0.00000
  58        5S          0.01575   0.23372  -0.02375  -0.69717  -0.56480
  59        5PX        -0.00144  -0.05136   0.20435   0.05403  -0.18735
  60        5PY         0.00334   0.09567  -0.05030   0.48560  -0.01236
  61        5PZ         0.00000   0.00000   0.00000   0.00000   0.00000
  62        6D 0       -0.00124  -0.01267   0.00300  -0.00618  -0.00239
  63        6D+1        0.00000   0.00000   0.00000   0.00000   0.00000
  64        6D-1        0.00000   0.00000   0.00000   0.00000   0.00000
  65        6D+2        0.00166   0.00252   0.00105   0.01333   0.00695
  66        6D-2       -0.00054  -0.00253   0.00027  -0.00317   0.01038
  67 4   C  1S         -0.00052  -0.03752  -0.03803  -0.06382   0.03364
  68        2S         -0.00081  -0.05788  -0.05902  -0.09907   0.05244
  69        2PX         0.00043   0.00472  -0.02691   0.00023   0.04149
  70        2PY        -0.00033  -0.02106  -0.02131  -0.01457   0.00866
  71        2PZ         0.00000   0.00000   0.00000   0.00000   0.00000
  72        3S          0.00277   0.15001   0.15431   0.26095  -0.13969
  73        3PX         0.00032   0.00847  -0.03874   0.00441   0.05735
  74        3PY        -0.00015  -0.02623  -0.02683  -0.01020   0.00748
  75        3PZ         0.00000   0.00000   0.00000   0.00000   0.00000
  76        4S         -0.01536   0.07152   0.07474   0.14522  -0.07207
  77        4PX        -0.00945   0.00221  -0.01231   0.01054   0.02574
  78        4PY         0.00361  -0.00682  -0.00434   0.00185  -0.00169
  79        4PZ         0.00000   0.00000   0.00000   0.00000   0.00000
  80        5S         -0.00742  -0.15953   0.25274   0.12262   0.27875
  81        5PX         0.00208  -0.04301   0.06578  -0.16838  -0.04580
  82        5PY        -0.00073   0.01516  -0.02636  -0.04196  -0.06453
  83        5PZ         0.00000   0.00000   0.00000   0.00000   0.00000
  84        6D 0        0.00012  -0.00742  -0.00716  -0.01040   0.00432
  85        6D+1        0.00000   0.00000   0.00000   0.00000   0.00000
  86        6D-1        0.00000   0.00000   0.00000   0.00000   0.00000
  87        6D+2        0.00009   0.00013  -0.00179   0.00123   0.00422
  88        6D-2        0.00011  -0.00013   0.00634   0.00092  -0.00371
  89 5   C  1S         -0.00019  -0.03155  -0.06040  -0.03304   0.03533
  90        2S         -0.00030  -0.04876  -0.09366  -0.05127   0.05520
  91        2PX         0.00014   0.01871   0.02122   0.02670  -0.01977
  92        2PY        -0.00004  -0.00494  -0.01250   0.03108  -0.03521
  93        2PZ         0.00000   0.00000   0.00000   0.00000   0.00000
  94        3S          0.00094   0.12679   0.24555   0.13544  -0.14786
  95        3PX         0.00055   0.02368   0.02155   0.03444  -0.02156
  96        3PY         0.00008  -0.00854  -0.02006   0.04858  -0.05415
  97        3PZ         0.00000   0.00000   0.00000   0.00000   0.00000
  98        4S         -0.00197   0.05818   0.12521   0.07569  -0.08696
  99        4PX         0.00013   0.00425   0.00804   0.01406  -0.00732
 100        4PY        -0.00192  -0.00102  -0.00773   0.01878  -0.01421
 101        4PZ         0.00000   0.00000   0.00000   0.00000   0.00000
 102        5S          0.00318  -0.01302   0.04404  -0.13189  -0.32708
 103        5PX        -0.00018  -0.00251   0.00244  -0.08407  -0.06436
 104        5PY         0.00196  -0.00622   0.01349  -0.11979  -0.00973
 105        5PZ         0.00000   0.00000   0.00000   0.00000   0.00000
 106        6D 0        0.00001  -0.00648  -0.01116  -0.00492   0.00493
 107        6D+1        0.00000   0.00000   0.00000   0.00000   0.00000
 108        6D-1        0.00000   0.00000   0.00000   0.00000   0.00000
 109        6D+2        0.00008   0.00103  -0.00136   0.00895  -0.00640
 110        6D-2        0.00000  -0.00013  -0.00096   0.00549  -0.00424
 111 6   C  1S         -0.00019  -0.03155  -0.06040   0.03304  -0.03533
 112        2S         -0.00030  -0.04876  -0.09366   0.05127  -0.05520
 113        2PX         0.00014   0.01871   0.02122  -0.02670   0.01977
 114        2PY         0.00004   0.00494   0.01250   0.03108  -0.03521
 115        2PZ         0.00000   0.00000   0.00000   0.00000   0.00000
 116        3S          0.00094   0.12679   0.24555  -0.13544   0.14786
 117        3PX         0.00055   0.02368   0.02155  -0.03444   0.02156
 118        3PY        -0.00008   0.00854   0.02006   0.04858  -0.05415
 119        3PZ         0.00000   0.00000   0.00000   0.00000   0.00000
 120        4S         -0.00197   0.05818   0.12521  -0.07569   0.08696
 121        4PX         0.00013   0.00425   0.00804  -0.01406   0.00732
 122        4PY         0.00192   0.00102   0.00773   0.01878  -0.01421
 123        4PZ         0.00000   0.00000   0.00000   0.00000   0.00000
[...]
 230        5PZ         0.01742
 231        6D 0        0.00501
 232        6D+1        0.00711
 233        6D-1        0.00341
 234        6D+2        0.01613
 235        6D-2        0.02105
 236 16  H  1S          0.27564
 237        2S          0.40083
 238        3S          0.08564
          Condensed to atoms (all electrons):
 Mulliken charges:
               1
     1  C   -0.213478
     2  C    0.026994
     3  C    0.026994
     4  C   -0.213478
     5  C   -0.190109
     6  C   -0.190109
     7  H    0.234425
     8  H    0.234425
     9  H    0.230743
    10  H    0.230743
    11  C   -0.598000
    12  O   -0.239655
    13  C    0.092365
    14  H    0.237886
    15  C    0.092365
    16  H    0.237886
    17  Bq   0.000000
    18  Bq   0.000000
    19  Bq   0.000000
    20  Bq   0.000000
    21  Bq   0.000000
    22  Bq   0.000000
    23  Bq   0.000000
    24  Bq   0.000000
    25  Bq   0.000000
    26  Bq   0.000000
    27  Bq   0.000000
    28  Bq   0.000000
    29  Bq   0.000000
    30  Bq   0.000000
    31  Bq   0.000000
    32  Bq   0.000000
    33  Bq   0.000000
    34  Bq   0.000000
    35  Bq   0.000000
    36  Bq   0.000000
    37  Bq   0.000000
    38  Bq   0.000000
    39  Bq   0.000000
    40  Bq   0.000000
    41  Bq   0.000000
    42  Bq   0.000000
    43  Bq   0.000000
    44  Bq   0.000000
    45  Bq   0.000000
    46  Bq   0.000000
    47  Bq   0.000000
    48  Bq   0.000000
    49  Bq   0.000000
    50  Bq   0.000000
    51  Bq   0.000000
    52  Bq   0.000000
    53  Bq   0.000000
    54  Bq   0.000000
    55  Bq   0.000000
    56  Bq   0.000000
 Sum of Mulliken charges =   0.00000
 Mulliken charges with hydrogens summed into heavy atoms:
               1
     1  C    0.020948
     2  C    0.026994
     3  C    0.026994
     4  C    0.020948
     5  C    0.040634
     6  C    0.040634
    11  C   -0.598000
    12  O   -0.239655
    13  C    0.330251
    15  C    0.330251
    17  Bq   0.000000
    18  Bq   0.000000
    19  Bq   0.000000
    20  Bq   0.000000
    21  Bq   0.000000
    22  Bq   0.000000
    23  Bq   0.000000
    24  Bq   0.000000
    25  Bq   0.000000
    26  Bq   0.000000
    27  Bq   0.000000
    28  Bq   0.000000
    29  Bq   0.000000
    30  Bq   0.000000
    31  Bq   0.000000
    32  Bq   0.000000
    33  Bq   0.000000
    34  Bq   0.000000
    35  Bq   0.000000
    36  Bq   0.000000
    37  Bq   0.000000
    38  Bq   0.000000
    39  Bq   0.000000
    40  Bq   0.000000
    41  Bq   0.000000
    42  Bq   0.000000
    43  Bq   0.000000
    44  Bq   0.000000
    45  Bq   0.000000
    46  Bq   0.000000
    47  Bq   0.000000
    48  Bq   0.000000
    49  Bq   0.000000
    50  Bq   0.000000
    51  Bq   0.000000
    52  Bq   0.000000
    53  Bq   0.000000
    54  Bq   0.000000
    55  Bq   0.000000
    56  Bq   0.000000
 Electronic spatial extent (au):  <R**2>=           1770.1824
 Charge=              0.0000 electrons
 Dipole moment (field-independent basis, Debye):
    X=             -4.2804    Y=              0.0000    Z=              0.0000  Tot=              4.2804
 Quadrupole moment (field-independent basis, Debye-Ang):
   XX=            -75.5608   YY=            -49.9778   ZZ=            -61.1328
   XY=              0.0000   XZ=              0.0000   YZ=              0.0000
 Traceless Quadrupole moment (field-independent basis, Debye-Ang):
   XX=            -13.3370   YY=             12.2460   ZZ=              1.0910
   XY=              0.0000   XZ=              0.0000   YZ=              0.0000
 Octapole moment (field-independent basis, Debye-Ang**2):
  XXX=           -341.5539  YYY=              0.0000  ZZZ=              0.0000  XYY=            -63.4522
  XXY=              0.0000  XXZ=              0.0000  XZZ=            -70.7252  YZZ=              0.0000
  YYZ=              0.0000  XYZ=              0.0000
 Hexadecapole moment (field-independent basis, Debye-Ang**3):
 XXXX=          -2462.7358 YYYY=           -405.3207 ZZZZ=            -70.6673 XXXY=              0.0000
 XXXZ=              0.0000 YYYX=              0.0000 YYYZ=              0.0000 ZZZX=              0.0000
 ZZZY=              0.0000 XXYY=           -351.0468 XXZZ=           -319.7951 YYZZ=            -99.5915
 XXYZ=              0.0000 YYXZ=              0.0000 ZZXY=              0.0000
 N-N= 4.515752843353D+02 E-N=-1.884689057129D+03  KE= 4.201129618369D+02
 Orbital energies and kinetic energies (alpha):
                                 1                 2
   1         O               -19.136955         29.127221
   2         O               -10.272701         15.958513
   3         O               -10.212443         15.953504
   4         O               -10.212200         15.954993
   5         O               -10.205927         15.954347
   6         O               -10.205598         15.955581
   7         O               -10.201782         15.953995
   8         O               -10.201770         15.955224
   9         O               -10.185613         15.953463
  10         O               -10.185599         15.954062
  11         O                -1.063477          2.717201
  12         O                -0.899191          1.508184
  13         O                -0.835513          1.554133
  14         O                -0.791516          1.634846
  15         O                -0.721611          1.666366
  16         O                -0.704077          1.625168
  17         O                -0.610939          1.501752
  18         O                -0.596904          1.502416
  19         O                -0.562311          1.506809
  20         O                -0.528499          1.129981
  21         O                -0.499747          1.482967
  22         O                -0.483759          1.917837
  23         O                -0.462120          1.259566
  24         O                -0.435009          1.261858
  25         O                -0.432436          1.715104
  26         O                -0.431926          1.395667
  27         O                -0.421683          1.717594
  28         O                -0.398797          1.549739
  29         O                -0.388105          1.294072
  30         O                -0.356024          1.456837
  31         O                -0.313554          1.287250
  32         O                -0.309182          1.107314
  33         O                -0.270367          2.311282
  34         O                -0.218037          1.231635
  35         V                -0.134661          1.491480
  36         V                -0.022618          1.399504
  37         V                -0.004299          0.298073
  38         V                 0.002911          1.336614
  39         V                 0.010318          0.269058
  40         V                 0.017387          0.287243
  41         V                 0.035704          0.284186
  42         V                 0.036453          0.568435
  43         V                 0.037639          0.281365
  44         V                 0.046753          0.303684
  45         V                 0.064537          0.313000
  46         V                 0.064775          0.738943
  47         V                 0.064981          0.356998
  48         V                 0.065761          0.339806
  49         V                 0.089479          0.652120
  50         V                 0.091562          0.288891
  51         V                 0.103719          0.339903
  52         V                 0.103819          0.402968
  53         V                 0.106273          0.267605
  54         V                 0.111831          0.269519
  55         V                 0.120479          0.411852
  56         V                 0.143716          0.503710
  57         V                 0.148812          0.571130
  58         V                 0.149484          0.490075
  59         V                 0.150604          1.019755
  60         V                 0.154687          0.729014
  61         V                 0.159201          0.332545
  62         V                 0.160352          1.056713
  63         V                 0.167950          0.447387
  64         V                 0.170643          0.910770
  65         V                 0.173435          0.351974
  66         V                 0.183891          0.865205
  67         V                 0.191069          0.842473
  68         V                 0.197502          0.825480
  69         V                 0.203203          0.861973
  70         V                 0.203687          0.366691
  71         V                 0.209938          0.666883
  72         V                 0.216615          0.626240
  73         V                 0.218752          0.526611
  74         V                 0.229638          0.448387
  75         V                 0.236919          1.003402
  76         V                 0.244789          0.918818
  77         V                 0.248052          0.909058
  78         V                 0.260351          1.241289
  79         V                 0.262903          1.247087
  80         V                 0.266848          0.680224
  81         V                 0.275541          0.470812
  82         V                 0.291892          0.588431
  83         V                 0.297214          1.010750
  84         V                 0.304240          0.714813
  85         V                 0.309745          0.908499
  86         V                 0.313834          1.366477
  87         V                 0.330631          1.019361
  88         V                 0.349347          0.931227
  89         V                 0.364398          1.002494
  90         V                 0.391989          1.577686
  91         V                 0.396025          2.186396
  92         V                 0.435153          1.753247
  93         V                 0.436781          2.050986
  94         V                 0.462887          1.373100
  95         V                 0.489542          1.788686
  96         V                 0.514124          1.797249
  97         V                 0.517562          1.604744
  98         V                 0.518112          1.398933
  99         V                 0.529326          1.581382
 100         V                 0.542128          1.632243
 101         V                 0.546645          1.480046
 102         V                 0.553692          1.441598
 103         V                 0.559969          1.942074
 104         V                 0.568257          1.536768
 105         V                 0.583304          1.485282
 106         V                 0.605269          1.738442
 107         V                 0.614735          1.558905
 108         V                 0.619131          1.766448
 109         V                 0.638885          1.555237
 110         V                 0.641083          1.611191
 111         V                 0.675690          1.758541
 112         V                 0.678720          2.071649
 113         V                 0.687729          2.290998
 114         V                 0.696254          1.924728
 115         V                 0.698870          1.591073
 116         V                 0.709956          2.414261
 117         V                 0.752791          1.927168
 118         V                 0.761606          2.296428
 119         V                 0.774197          1.908125
 120         V                 0.800095          2.184963
 121         V                 0.816486          1.825962
 122         V                 0.820349          1.909313
 123         V                 0.827375          1.893343
 124         V                 0.847705          1.743114
 125         V                 0.864116          2.837078
 126         V                 0.890394          1.939275
 127         V                 0.895626          2.411413
 128         V                 0.906651          1.950751
 129         V                 0.916262          2.296327
 130         V                 0.934355          2.079386
 131         V                 0.940022          2.577909
 132         V                 0.959290          1.931088
 133         V                 0.976225          1.690762
 134         V                 1.021282          2.321609
 135         V                 1.030525          2.002805
 136         V                 1.058198          2.026759
 137         V                 1.095293          2.033920
 138         V                 1.107252          2.625108
 139         V                 1.123985          2.557340
 140         V                 1.129921          1.867990
 141         V                 1.132824          2.149256
 142         V                 1.152929          2.190429
 143         V                 1.181541          2.302134
 144         V                 1.193886          2.623852
 145         V                 1.195288          2.232544
 146         V                 1.256688          2.272058
 147         V                 1.274514          2.642200
 148         V                 1.308362          2.488069
 149         V                 1.312678          2.710906
 150         V                 1.427366          2.464107
 151         V                 1.455036          2.647985
 152         V                 1.492697          2.716130
 153         V                 1.546396          2.582361
 154         V                 1.561085          2.845622
 155         V                 1.599172          2.938176
 156         V                 1.622743          2.918827
 157         V                 1.649231          2.742050
 158         V                 1.656986          2.988264
 159         V                 1.691490          2.926510
 160         V                 1.697883          2.748502
 161         V                 1.747554          3.258770
 162         V                 1.757633          3.249770
 163         V                 1.778663          2.960713
 164         V                 1.787681          3.730294
 165         V                 1.839721          2.943577
 166         V                 1.867137          3.188738
 167         V                 1.870036          3.270662
 168         V                 1.895458          3.160848
 169         V                 1.942178          3.159181
 170         V                 1.961917          3.421557
 171         V                 1.974470          3.268791
 172         V                 1.977568          3.875631
 173         V                 1.998183          3.193685
 174         V                 2.107787          3.865241
 175         V                 2.131773          3.989314
 176         V                 2.139211          4.378054
 177         V                 2.176709          3.438727
 178         V                 2.220183          3.952127
 179         V                 2.243918          4.042349
 180         V                 2.280679          4.088701
 181         V                 2.307915          3.421273
 182         V                 2.311945          4.337394
 183         V                 2.349796          4.186093
 184         V                 2.355585          4.641895
 185         V                 2.421061          4.442260
 186         V                 2.472216          4.693508
 187         V                 2.578084          4.457751
 188         V                 2.601494          6.254191
 189         V                 2.625518          6.275019
 190         V                 2.662551          4.482533
 191         V                 2.705490          6.182452
 192         V                 2.757799          6.200426
 193         V                 2.785928          6.099199
 194         V                 2.815933          5.039301
 195         V                 2.873438          6.376166
 196         V                 2.876944          4.692068
 197         V                 2.877786          5.154472
 198         V                 2.916967          5.205310
 199         V                 2.950802          6.388159
 200         V                 2.976199          6.101424
 201         V                 2.993759          6.285645
 202         V                 3.025729          6.494351
 203         V                 3.054576          6.628166
 204         V                 3.125492          6.869237
 205         V                 3.192024          6.460366
 206         V                 3.211833          6.640772
 207         V                 3.256490          6.964132
 208         V                 3.307767          6.455372
 209         V                 3.340384          6.826379
 210         V                 3.341476          6.745239
 211         V                 3.348094          5.226523
 212         V                 3.406688          6.800971
 213         V                 3.471014          5.802374
 214         V                 3.485218          7.031557
 215         V                 3.531842          6.005255
 216         V                 3.592316          6.764800
 217         V                 3.623316          6.924381
 218         V                 3.707604          7.003663
 219         V                 3.839493          7.383642
 220         V                 3.990043          7.494530
 221         V                 4.017323          7.126938
 222         V                 4.211703          7.480679
 223         V                 4.512860          7.624652
 224         V                 4.687493          7.832358
 225         V                 5.037967         11.837097
 226         V                 5.185166         11.861640
 227         V                 5.711689         12.232696
 228         V                23.283490         60.118399
 229         V                23.645426         60.236239
 230         V                23.682912         60.248622
 231         V                23.728964         60.249211
 232         V                23.865555         60.325541
 233         V                24.117232         60.435129
 234         V                24.129735         60.428378
 235         V                24.147821         60.412884
 236         V                24.188134         60.487208
 237         V                50.016641        123.675844
 Total kinetic energy from orbitals= 4.201129618369D+02
 1\1\GINC-HOGWARTS\SP\RB3LYP\6-311+G(d)\C9H6O1\ANUJA\11-Nov-2014\0\\# B
 3LYP/6-311+G* NMR=GIAO INTEGRAL=(GRID=ULTRAFINE) CPHF=(GRID=FINE) POP=
 FULL SCF(MAXCYCLE=512)\\----------------------------------------- # Ce
 nter 1\\0,1\C,0,-0.04127,-1.4488,0.\C,0,1.22766,-0.75729,0.\C,0,1.2276
 6,0.75729,0.\C,0,-0.04127,1.4488,0.\C,0,-1.18639,0.73088,0.\C,0,-1.186
 39,-0.73088,0.\H,0,-0.05832,-2.53373,0.\H,0,-0.05832,2.53373,0.\H,0,-2
 .14558,1.23856,0.\H,0,-2.14558,-1.23856,0.\C,0,3.40148,0.,0.\O,0,4.611
 32,0.,0.\C,0,2.49908,-1.20688,0.\H,0,2.86176,-2.22507,0.\C,0,2.49908,1
 .20688,0.\H,0,2.86176,2.22507,0.\Bq,0,0.,0.,0.\Bq,0,0.,0.,0.1\Bq,0,0.,
 0.,0.2\Bq,0,0.,0.,0.3\Bq,0,0.,0.,0.4\Bq,0,0.,0.,0.5\Bq,0,0.,0.,0.6\Bq,
 0,0.,0.,0.7\Bq,0,0.,0.,0.8\Bq,0,0.,0.,0.9\Bq,0,0.,0.,1.\Bq,0,0.,0.,1.1
 \Bq,0,0.,0.,1.2\Bq,0,0.,0.,1.3\Bq,0,0.,0.,1.4\Bq,0,0.,0.,1.5\Bq,0,0.,0
 .,1.6\Bq,0,0.,0.,1.7\Bq,0,0.,0.,1.8\Bq,0,0.,0.,1.9\Bq,0,0.,0.,2.\Bq,0,
 0.,0.,2.1\Bq,0,0.,0.,2.2\Bq,0,0.,0.,2.3\Bq,0,0.,0.,2.4\Bq,0,0.,0.,2.5\
 Bq,0,0.,0.,2.6\Bq,0,0.,0.,2.7\Bq,0,0.,0.,2.8\Bq,0,0.,0.,2.9\Bq,0,0.,0.
 ,3.\Bq,0,0.,0.,3.1\Bq,0,0.,0.,3.2\Bq,0,0.,0.,3.3\Bq,0,0.,0.,3.4\Bq,0,0
 .,0.,3.5\Bq,0,0.,0.,3.6\Bq,0,0.,0.,3.7\Bq,0,0.,0.,3.8\Bq,0,0.,0.,3.9\\
 Version=EM64L-G09RevD.01\HF=-421.8293523\RMSD=2.495e-09\Dipole=-1.6840
 439,0.,0.\Quadrupole=-9.9157581,9.1046043,0.8111538,0.,0.,0.\PG=C01 [X
 (C9H6O1)]\\@


 WORK FAITHFULLY FOR EIGHT HOURS A DAY AND DON'T WORRY.
 IN TIME YOU MAY BECOME BOSS AND WORK TWELVE HOURS A DAY
 AND HAVE ALL THE WORRY.
 Job cpu time:       0 days  0 hours  9 minutes 30.5 seconds.
 File lengths (MBytes):  RWF=     26 Int=      0 D2E=      0 Chk=      4 Scr=      1
 Normal termination of Gaussian 09 at Tue Nov 11 01:15:26 2014.
