 Entering Gaussian System, Link 0=g09
 Initial command:
 /usr/local/g09/l1.exe "/gtmp/Gau-3345.inp" -scrdir="/gtmp/"
 Entering Link 1 = /usr/local/g09/l1.exe PID=      3346.
  
 Copyright (c) 1988,1990,1992,1993,1995,1998,2003,2009,2013,
            Gaussian, Inc.  All Rights Reserved.
  
 This is part of the Gaussian(R) 09 program.  It is based on
 the Gaussian(R) 03 system (copyright 2003, Gaussian, Inc.),
 the Gaussian(R) 98 system (copyright 1998, Gaussian, Inc.),
 the Gaussian(R) 94 system (copyright 1995, Gaussian, Inc.),
 the Gaussian 92(TM) system (copyright 1992, Gaussian, Inc.),
 the Gaussian 90(TM) system (copyright 1990, Gaussian, Inc.),
 the Gaussian 88(TM) system (copyright 1988, Gaussian, Inc.),
 the Gaussian 86(TM) system (copyright 1986, Carnegie Mellon
 University), and the Gaussian 82(TM) system (copyright 1983,
 Carnegie Mellon University). Gaussian is a federally registered
 trademark of Gaussian, Inc.
  
 This software contains proprietary and confidential information,
 including trade secrets, belonging to Gaussian, Inc.
  
 This software is provided under written license and may be
 used, copied, transmitted, or stored only in accord with that
 written license.
  
 The following legend is applicable only to US Government
 contracts under FAR:
  
                    RESTRICTED RIGHTS LEGEND
  
 Use, reproduction and disclosure by the US Government is
 subject to restrictions as set forth in subparagraphs (a)
 and (c) of the Commercial Computer Software - Restricted
 Rights clause in FAR 52.227-19.
  
 Gaussian, Inc.
 340 Quinnipiac St., Bldg. 40, Wallingford CT 06492
  
  
 ---------------------------------------------------------------
 Warning -- This program may not be used in any manner that
 competes with the business of Gaussian, Inc. or will provide
 assistance to any competitor of Gaussian, Inc.  The licensee
 of this program is prohibited from giving any competitor of
 Gaussian, Inc. access to this program.  By using this program,
 the user acknowledges that Gaussian, Inc. is engaged in the
 business of creating and licensing software in the field of
 computational chemistry and represents and warrants to the
 licensee that it is not a competitor of Gaussian, Inc. and that
 it will not use this program in any manner prohibited above.
 ---------------------------------------------------------------
  

 Cite this work as:
 Gaussian 09, Revision D.01,
 M. J. Frisch, G. W. Trucks, H. B. Schlegel, G. E. Scuseria, 
 M. A. Robb, J. R. Cheeseman, G. Scalmani, V. Barone, B. Mennucci, 
 G. A. Petersson, H. Nakatsuji, M. Caricato, X. Li, H. P. Hratchian, 
 A. F. Izmaylov, J. Bloino, G. Zheng, J. L. Sonnenberg, M. Hada, 
 M. Ehara, K. Toyota, R. Fukuda, J. Hasegawa, M. Ishida, T. Nakajima, 
 Y. Honda, O. Kitao, H. Nakai, T. Vreven, J. A. Montgomery, Jr., 
 J. E. Peralta, F. Ogliaro, M. Bearpark, J. J. Heyd, E. Brothers, 
 K. N. Kudin, V. N. Staroverov, T. Keith, R. Kobayashi, J. Normand, 
 K. Raghavachari, A. Rendell, J. C. Burant, S. S. Iyengar, J. Tomasi, 
 M. Cossi, N. Rega, J. M. Millam, M. Klene, J. E. Knox, J. B. Cross, 
 V. Bakken, C. Adamo, J. Jaramillo, R. Gomperts, R. E. Stratmann, 
 O. Yazyev, A. J. Austin, R. Cammi, C. Pomelli, J. W. Ochterski, 
 R. L. Martin, K. Morokuma, V. G. Zakrzewski, G. A. Voth, 
 P. Salvador, J. J. Dannenberg, S. Dapprich, A. D. Daniels, 
 O. Farkas, J. B. Foresman, J. V. Ortiz, J. Cioslowski, 
 and D. J. Fox, Gaussian, Inc., Wallingford CT, 2013.
 
 ******************************************
 Gaussian 09:  EM64L-G09RevD.01 24-Apr-2013
                21-Aug-2014 
 ******************************************
 %chk=/home/stanger/chk/indene-1
 %nproc=12
 Will use up to   12 processors via shared memory.
 %mem=10240MB
 ----------------------------------------------------------
 # b3lyp/6-311g* geom=checkpoint guess=read opt=readfc freq
 ----------------------------------------------------------
 1/10=3,14=-1,18=20,19=15,26=3,29=2,38=1/1,3;
 2/9=110,12=2,40=1/2;
 3/5=4,6=6,7=1,11=2,14=-4,16=1,25=1,30=1,71=1,74=-5,116=-2/1,2,3;
 4/5=1/1;
 5/5=2,38=6/2;
 6/7=2,8=2,9=2,10=2,28=1/1;
 7//1,2,3,16;
 1/14=-1,18=20,19=15,26=3/3(2);
 2/9=110/2;
 99//99;
 2/9=110/2;
 3/5=4,6=6,7=1,11=2,14=-2,16=1,25=1,30=1,71=1,74=-5/1,2,3;
 4/5=5,16=3,69=1/1;
 5/5=2,38=5/2;
 7//1,2,3,16;
 1/14=-1,18=20,19=15,26=3/3(-5);
 2/9=110/2;
 6/7=2,8=2,9=2,10=2,19=2,28=1/1;
 99/9=1/99;
 -----------------------------------------
 indene-2-one, b3lyp/6-311g* opt-cont freq
 -----------------------------------------
 Structure from the checkpoint file:  "/home/stanger/chk/indene-1.chk"
 Charge =  0 Multiplicity = 1
 Redundant internal coordinates found in file.
 C,0,-3.3247549473,-0.4474262901,-0.0000147297
 C,0,-1.8793239304,-0.470180007,0.0010083258
 C,0,-1.1336891517,0.8476402004,-0.0001914201
 C,0,-1.8975784344,2.0749373414,-0.0023112216
 C,0,-3.2477605358,2.0139182964,-0.0031601149
 C,0,-3.9677821436,0.7413663031,-0.0020014949
 H,0,-3.8733937987,-1.383518091,0.0008245958
 H,0,-1.3777085385,3.0273068432,-0.0031912914
 H,0,-3.832576827,2.9279901467,-0.0047499202
 H,0,-5.0524965431,0.7719280952,-0.0027868443
 C,0,0.3855965538,-0.881836765,0.0030997634
 O,0,1.4385255007,-1.4775922717,0.0045975564
 C,0,-0.9942143263,-1.4876347275,0.0029385527
 H,0,-1.1813749601,-2.5521706496,0.00419315
 C,0,0.1942931933,0.6129100309,0.0010263337
 H,0,1.0104231582,1.3215701431,0.0006663775
 Recover connectivity data from disk.

 GradGradGradGradGradGradGradGradGradGradGradGradGradGradGradGradGradGrad
 Berny optimization.
 Initialization pass.
 Force constant matrix read from checkpoint file:
 "/home/stanger/chk/indene-1.chk"
                           ----------------------------
                           !    Initial Parameters    !
                           ! (Angstroms and Degrees)  !
 --------------------------                            --------------------------
 ! Name  Definition              Value          Derivative Info.                !
 --------------------------------------------------------------------------------
 ! R1    R(1,2)                  1.4456         D2E/DX2 =    0.3089             !
 ! R2    R(1,6)                  1.3516         D2E/DX2 =    0.4901             !
 ! R3    R(1,7)                  1.085          D2E/DX2 =    0.3566             !
 ! R4    R(2,3)                  1.5141         D2E/DX2 =    0.1919             !
 ! R5    R(2,13)                 1.3486         D2E/DX2 =    0.458              !
 ! R6    R(3,4)                  1.4456         D2E/DX2 =    0.3089             !
 ! R7    R(3,15)                 1.3486         D2E/DX2 =    0.458              !
 ! R8    R(4,5)                  1.3516         D2E/DX2 =    0.4901             !
 ! R9    R(4,8)                  1.085          D2E/DX2 =    0.3566             !
 ! R10   R(5,6)                  1.4621         D2E/DX2 =    0.2852             !
 ! R11   R(5,9)                  1.0851         D2E/DX2 =    0.3564             !
 ! R12   R(6,10)                 1.0851         D2E/DX2 =    0.3564             !
 ! R13   R(11,12)                1.2098         D2E/DX2 =    0.8252             !
 ! R14   R(11,13)                1.5069         D2E/DX2 =    0.1918             !
 ! R15   R(11,15)                1.5069         D2E/DX2 =    0.1918             !
 ! R16   R(13,14)                1.0809         D2E/DX2 =    0.3676             !
 ! R17   R(15,16)                1.0809         D2E/DX2 =    0.3676             !
 ! A1    A(2,1,6)              119.3112         D2E/DX2 =    0.0788             !
 ! A2    A(2,1,7)              119.4724         D2E/DX2 =    0.0798             !
 ! A3    A(6,1,7)              121.2164         D2E/DX2 =    0.0796             !
 ! A4    A(1,2,3)              118.5997         D2E/DX2 =    0.0699             !
 ! A5    A(1,2,13)             131.9227         D2E/DX2 =    0.0807             !
 ! A6    A(3,2,13)             109.4776         D2E/DX2 =    0.0736             !
 ! A7    A(2,3,4)              118.5997         D2E/DX2 =    0.0699             !
 ! A8    A(2,3,15)             109.4776         D2E/DX2 =    0.0736             !
 ! A9    A(4,3,15)             131.9227         D2E/DX2 =    0.0807             !
 ! A10   A(3,4,5)              119.3112         D2E/DX2 =    0.0788             !
 ! A11   A(3,4,8)              119.4724         D2E/DX2 =    0.0798             !
 ! A12   A(5,4,8)              121.2164         D2E/DX2 =    0.0796             !
 ! A13   A(4,5,6)              122.0891         D2E/DX2 =    0.0759             !
 ! A14   A(4,5,9)              120.0232         D2E/DX2 =    0.082              !
 ! A15   A(6,5,9)              117.8876         D2E/DX2 =    0.0817             !
 ! A16   A(1,6,5)              122.0891         D2E/DX2 =    0.0759             !
 ! A17   A(1,6,10)             120.0232         D2E/DX2 =    0.082              !
 ! A18   A(5,6,10)             117.8876         D2E/DX2 =    0.0817             !
 ! A19   A(12,11,13)           126.7949         D2E/DX2 =    0.1168             !
 ! A20   A(12,11,15)           126.7949         D2E/DX2 =    0.1168             !
 ! A21   A(13,11,15)           106.4103         D2E/DX2 =    0.0808             !
 ! A22   A(2,13,11)            107.3172         D2E/DX2 =    0.085              !
 ! A23   A(2,13,14)            129.0077         D2E/DX2 =    0.0687             !
 ! A24   A(11,13,14)           123.6751         D2E/DX2 =    0.0684             !
 ! A25   A(3,15,11)            107.3172         D2E/DX2 =    0.085              !
 ! A26   A(3,15,16)            129.0077         D2E/DX2 =    0.0687             !
 ! A27   A(11,15,16)           123.6751         D2E/DX2 =    0.0684             !
 ! D1    D(6,1,2,3)              0.0            D2E/DX2 =    0.0057             !
 ! D2    D(6,1,2,13)          -180.0            D2E/DX2 =    0.0052             !
 ! D3    D(7,1,2,3)           -180.0            D2E/DX2 =    0.0058             !
 ! D4    D(7,1,2,13)             0.0            D2E/DX2 =    0.0066             !
 ! D5    D(2,1,6,5)              0.0            D2E/DX2 =    0.0077             !
 ! D6    D(2,1,6,10)           180.0            D2E/DX2 =    0.0088             !
 ! D7    D(7,1,6,5)            180.0            D2E/DX2 =    0.0077             !
 ! D8    D(7,1,6,10)             0.0            D2E/DX2 =    0.0094             !
 ! D9    D(1,2,3,4)              0.0            D2E/DX2 =    0.0036             !
 ! D10   D(1,2,3,15)           180.0            D2E/DX2 =    0.0033             !
 ! D11   D(13,2,3,4)           180.0            D2E/DX2 =    0.0033             !
 ! D12   D(13,2,3,15)            0.0            D2E/DX2 =    0.0049             !
 ! D13   D(1,2,13,11)          180.0            D2E/DX2 =    0.0059             !
 ! D14   D(1,2,13,14)            0.0            D2E/DX2 =    0.0055             !
 ! D15   D(3,2,13,11)            0.0            D2E/DX2 =    0.007              !
 ! D16   D(3,2,13,14)          180.0            D2E/DX2 =    0.0056             !
 ! D17   D(2,3,4,5)              0.0            D2E/DX2 =    0.0057             !
 ! D18   D(2,3,4,8)            180.0            D2E/DX2 =    0.0058             !
 ! D19   D(15,3,4,5)           180.0            D2E/DX2 =    0.0052             !
 ! D20   D(15,3,4,8)             0.0            D2E/DX2 =    0.0066             !
 ! D21   D(2,3,15,11)            0.0            D2E/DX2 =    0.007              !
 ! D22   D(2,3,15,16)          180.0            D2E/DX2 =    0.0056             !
 ! D23   D(4,3,15,11)         -180.0            D2E/DX2 =    0.0059             !
 ! D24   D(4,3,15,16)            0.0            D2E/DX2 =    0.0055             !
 ! D25   D(3,4,5,6)              0.0            D2E/DX2 =    0.0077             !
 ! D26   D(3,4,5,9)           -180.0            D2E/DX2 =    0.0088             !
 ! D27   D(8,4,5,6)           -180.0            D2E/DX2 =    0.0077             !
 ! D28   D(8,4,5,9)              0.0            D2E/DX2 =    0.0094             !
 ! D29   D(4,5,6,1)              0.0            D2E/DX2 =    0.0077             !
 ! D30   D(4,5,6,10)           180.0            D2E/DX2 =    0.0067             !
 ! D31   D(9,5,6,1)            180.0            D2E/DX2 =    0.0067             !
 ! D32   D(9,5,6,10)             0.0            D2E/DX2 =    0.0077             !
 ! D33   D(12,11,13,2)         180.0            D2E/DX2 =    0.0052             !
 ! D34   D(12,11,13,14)          0.0            D2E/DX2 =    0.0086             !
 ! D35   D(15,11,13,2)           0.0            D2E/DX2 =    0.0108             !
 ! D36   D(15,11,13,14)       -180.0            D2E/DX2 =    0.0066             !
 ! D37   D(12,11,15,3)        -180.0            D2E/DX2 =    0.0052             !
 ! D38   D(12,11,15,16)          0.0            D2E/DX2 =    0.0086             !
 ! D39   D(13,11,15,3)           0.0            D2E/DX2 =    0.0108             !
 ! D40   D(13,11,15,16)       -180.0            D2E/DX2 =    0.0066             !
 --------------------------------------------------------------------------------
 Trust Radius=3.00D-01 FncErr=1.00D-07 GrdErr=1.00D-06
 Number of steps in this run=     94 maximum allowed number of steps=    100.
 GradGradGradGradGradGradGradGradGradGradGradGradGradGradGradGradGradGrad

                          Input orientation:                          
 ---------------------------------------------------------------------
 Center     Atomic      Atomic             Coordinates (Angstroms)
 Number     Number       Type             X           Y           Z
 ---------------------------------------------------------------------
      1          6           0       -3.324755   -0.447426   -0.000015
      2          6           0       -1.879324   -0.470180    0.001008
      3          6           0       -1.133689    0.847640   -0.000191
      4          6           0       -1.897578    2.074937   -0.002311
      5          6           0       -3.247761    2.013918   -0.003160
      6          6           0       -3.967782    0.741366   -0.002001
      7          1           0       -3.873394   -1.383518    0.000825
      8          1           0       -1.377709    3.027307   -0.003191
      9          1           0       -3.832577    2.927990   -0.004750
     10          1           0       -5.052497    0.771928   -0.002787
     11          6           0        0.385597   -0.881837    0.003100
     12          8           0        1.438526   -1.477592    0.004598
     13          6           0       -0.994214   -1.487635    0.002939
     14          1           0       -1.181375   -2.552171    0.004193
     15          6           0        0.194293    0.612910    0.001026
     16          1           0        1.010423    1.321570    0.000666
 ---------------------------------------------------------------------
                    Distance matrix (angstroms):
                    1          2          3          4          5
     1  C    0.000000
     2  C    1.445610   0.000000
     3  C    2.545185   1.514141   0.000000
     4  C    2.898130   2.545185   1.445610   0.000000
     5  C    2.462551   2.836085   2.414438   1.351560   0.000000
     6  C    1.351560   2.414438   2.836085   2.462551   1.462129
     7  H    1.085022   2.193285   3.533278   3.983060   3.454563
     8  H    3.983060   3.533278   2.193285   1.085022   2.126982
     9  H    3.413406   3.919540   3.407620   2.114692   1.085145
    10  H    2.114692   3.407620   3.919540   3.413406   2.190802
    11  C    3.735697   2.302027   2.302027   3.735697   4.646151
    12  O    4.873408   3.467422   3.467422   4.873408   5.843970
    13  C    2.552148   1.348568   2.339438   3.675325   4.164058
    14  H    3.004005   2.195866   3.400148   4.682213   5.011903
    15  C    3.675325   2.339438   1.348568   2.552148   3.716258
    16  H    4.682213   3.400148   2.195866   3.004005   4.314103
                    6          7          8          9         10
     6  C    0.000000
     7  H    2.126982   0.000000
     8  H    3.454563   5.067922   0.000000
     9  H    2.190802   4.311705   2.456877   0.000000
    10  H    1.085145   2.456877   4.311705   2.477259   0.000000
    11  C    4.646151   4.288437   4.288437   5.683998   5.683998
    12  O    5.843970   5.312754   5.312754   6.869772   6.869772
    13  C    3.716258   2.881062   4.531203   5.249200   4.644923
    14  H    4.314104   2.934745   5.582936   6.087784   5.102476
    15  C    4.164058   4.531203   2.881062   4.644923   5.249200
    16  H    5.011903   5.582936   2.934745   5.102476   6.087784
                   11         12         13         14         15
    11  C    0.000000
    12  O    1.209788   0.000000
    13  C    1.506940   2.432761   0.000000
    14  H    2.290287   2.831713   1.080864   0.000000
    15  C    1.506940   2.432761   2.413471   3.451117   0.000000
    16  H    2.290287   2.831713   3.451117   4.450827   1.080864
                   16
    16  H    0.000000
 Stoichiometry    C9H6O
 Framework group  C1[X(C9H6O)]
 Deg. of freedom    42
 Full point group                 C1      NOp   1
 Largest Abelian subgroup         C1      NOp   1
 Largest concise Abelian subgroup C1      NOp   1
                         Standard orientation:                         
 ---------------------------------------------------------------------
 Center     Atomic      Atomic             Coordinates (Angstroms)
 Number     Number       Type             X           Y           Z
 ---------------------------------------------------------------------
      1          6           0        1.344453   -1.449065    0.000000
      2          6           0        0.075228   -0.757070    0.000000
      3          6           0        0.075228    0.757070    0.000000
      4          6           0        1.344453    1.449065    0.000000
      5          6           0        2.489526    0.731064    0.000000
      6          6           0        2.489526   -0.731064    0.000000
      7          1           0        1.360981   -2.533961    0.000000
      8          1           0        1.360981    2.533961    0.000000
      9          1           0        3.448649    1.238629    0.000000
     10          1           0        3.448649   -1.238629    0.000000
     11          6           0       -2.098749    0.000000    0.000000
     12          8           0       -3.308536    0.000000    0.000000
     13          6           0       -1.196164   -1.206735    0.000000
     14          1           0       -1.557499   -2.225413    0.000000
     15          6           0       -1.196164    1.206735    0.000000
     16          1           0       -1.557499    2.225413    0.000000
 ---------------------------------------------------------------------
 Rotational constants (GHZ):      3.6636557      1.0381161      0.8089078
 Standard basis: 6-311G(d) (5D, 7F)
 There are   208 symmetry adapted cartesian basis functions of A   symmetry.
 There are   198 symmetry adapted basis functions of A   symmetry.
   198 basis functions,   350 primitive gaussians,   208 cartesian basis functions
    34 alpha electrons       34 beta electrons
       nuclear repulsion energy       451.5547951292 Hartrees.
 NAtoms=   16 NActive=   16 NUniq=   16 SFac= 1.00D+00 NAtFMM=   60 NAOKFM=F Big=F
 Integral buffers will be    131072 words long.
 Raffenetti 2 integral format.
 Two-electron integral symmetry is turned on.
 One-electron integrals computed using PRISM.
 NBasis=   198 RedAO= T EigKep=  1.71D-04  NBF=   198
 NBsUse=   198 1.00D-06 EigRej= -1.00D+00 NBFU=   198
 Initial guess from the checkpoint file:  "/home/stanger/chk/indene-1.chk"
 B after Tr=     0.000000    0.000000    0.000000
         Rot=    1.000000    0.000000    0.000000    0.000000 Ang=   0.00 deg.
 Keep R1 ints in memory in canonical form, NReq=198791495.
 Requested convergence on RMS density matrix=1.00D-08 within 128 cycles.
 Requested convergence on MAX density matrix=1.00D-06.
 Requested convergence on             energy=1.00D-06.
 No special actions if energy rises.
 SCF Done:  E(RB3LYP) =  -421.821886737     A.U. after    1 cycles
            NFock=  1  Conv=0.22D-08     -V/T= 2.0038

 **********************************************************************

            Population analysis using the SCF density.

 **********************************************************************

 Orbital symmetries:
       Occupied  (A) (A) (A) (A) (A) (A) (A) (A) (A) (A) (A) (A)
                 (A) (A) (A) (A) (A) (A) (A) (A) (A) (A) (A) (A)
                 (A) (A) (A) (A) (A) (A) (A) (A) (A) (A)
       Virtual   (A) (A) (A) (A) (A) (A) (A) (A) (A) (A) (A) (A)
                 (A) (A) (A) (A) (A) (A) (A) (A) (A) (A) (A) (A)
                 (A) (A) (A) (A) (A) (A) (A) (A) (A) (A) (A) (A)
                 (A) (A) (A) (A) (A) (A) (A) (A) (A) (A) (A) (A)
                 (A) (A) (A) (A) (A) (A) (A) (A) (A) (A) (A) (A)
                 (A) (A) (A) (A) (A) (A) (A) (A) (A) (A) (A) (A)
                 (A) (A) (A) (A) (A) (A) (A) (A) (A) (A) (A) (A)
                 (A) (A) (A) (A) (A) (A) (A) (A) (A) (A) (A) (A)
                 (A) (A) (A) (A) (A) (A) (A) (A) (A) (A) (A) (A)
                 (A) (A) (A) (A) (A) (A) (A) (A) (A) (A) (A) (A)
                 (A) (A) (A) (A) (A) (A) (A) (A) (A) (A) (A) (A)
                 (A) (A) (A) (A) (A) (A) (A) (A) (A) (A) (A) (A)
                 (A) (A) (A) (A) (A) (A) (A) (A) (A) (A) (A) (A)
                 (A) (A) (A) (A) (A) (A) (A) (A)
 The electronic state is 1-A.
 Alpha  occ. eigenvalues --  -19.12631 -10.26619 -10.20685 -10.20661 -10.20112
 Alpha  occ. eigenvalues --  -10.20080 -10.19687 -10.19686 -10.17988 -10.17986
 Alpha  occ. eigenvalues --   -1.05649  -0.89420  -0.83079  -0.78701  -0.71705
 Alpha  occ. eigenvalues --   -0.69943  -0.60675  -0.59250  -0.55769  -0.52451
 Alpha  occ. eigenvalues --   -0.49543  -0.47860  -0.45817  -0.42983  -0.42767
 Alpha  occ. eigenvalues --   -0.42742  -0.41658  -0.39461  -0.38317  -0.35199
 Alpha  occ. eigenvalues --   -0.30876  -0.30476  -0.26364  -0.21349
 Alpha virt. eigenvalues --   -0.12889  -0.01405   0.01133   0.03823   0.06055
 Alpha virt. eigenvalues --    0.07260   0.08071   0.09357   0.10064   0.12009
 Alpha virt. eigenvalues --    0.14061   0.18311   0.18844   0.21851   0.22264
 Alpha virt. eigenvalues --    0.27439   0.27864   0.29728   0.33225   0.35055
 Alpha virt. eigenvalues --    0.35136   0.36191   0.37574   0.38488   0.40199
 Alpha virt. eigenvalues --    0.40783   0.41129   0.41913   0.42403   0.43365
 Alpha virt. eigenvalues --    0.43901   0.46567   0.46983   0.48380   0.52208
 Alpha virt. eigenvalues --    0.52582   0.55523   0.55549   0.55734   0.58212
 Alpha virt. eigenvalues --    0.59440   0.60234   0.61760   0.62964   0.63977
 Alpha virt. eigenvalues --    0.64948   0.65887   0.70089   0.72286   0.73880
 Alpha virt. eigenvalues --    0.74576   0.78051   0.79417   0.79806   0.81969
 Alpha virt. eigenvalues --    0.83430   0.87188   0.87531   0.88622   0.93697
 Alpha virt. eigenvalues --    0.95983   0.97231   0.99410   1.02147   1.03406
 Alpha virt. eigenvalues --    1.06148   1.08055   1.09428   1.13599   1.15041
 Alpha virt. eigenvalues --    1.15278   1.15655   1.19813   1.24890   1.25239
 Alpha virt. eigenvalues --    1.27400   1.36635   1.41017   1.44103   1.49603
 Alpha virt. eigenvalues --    1.52821   1.53592   1.55236   1.56370   1.59283
 Alpha virt. eigenvalues --    1.63424   1.65592   1.68940   1.69861   1.71536
 Alpha virt. eigenvalues --    1.77170   1.80518   1.81884   1.82666   1.88308
 Alpha virt. eigenvalues --    1.89208   1.93458   1.93519   1.93613   1.98800
 Alpha virt. eigenvalues --    2.06366   2.07944   2.11630   2.17401   2.18519
 Alpha virt. eigenvalues --    2.21602   2.21603   2.23574   2.31039   2.31078
 Alpha virt. eigenvalues --    2.33601   2.37223   2.42776   2.48881   2.54404
 Alpha virt. eigenvalues --    2.54681   2.61746   2.64180   2.69746   2.72405
 Alpha virt. eigenvalues --    2.76682   2.83117   2.86219   2.87383   2.90355
 Alpha virt. eigenvalues --    2.91301   2.94727   2.96040   2.99965   3.01679
 Alpha virt. eigenvalues --    3.09055   3.13480   3.17943   3.23310   3.28019
 Alpha virt. eigenvalues --    3.29778   3.31958   3.32260   3.38371   3.40838
 Alpha virt. eigenvalues --    3.41659   3.50496   3.55191   3.55337   3.60418
 Alpha virt. eigenvalues --    3.78085   3.87882   3.93747   4.15365   4.51244
 Alpha virt. eigenvalues --    4.68412   4.87576   5.03895   5.59914  23.18110
 Alpha virt. eigenvalues --   23.56029  23.60630  23.69999  23.82895  24.11756
 Alpha virt. eigenvalues --   24.13134  24.14580  24.18248  49.97105
          Condensed to atoms (all electrons):
               1          2          3          4          5          6
     1  C    4.977924   0.407407  -0.056628  -0.033228  -0.043805   0.603732
     2  C    0.407407   5.046839   0.363622  -0.056628  -0.028274  -0.030244
     3  C   -0.056628   0.363622   5.046839   0.407407  -0.030244  -0.028274
     4  C   -0.033228  -0.056628   0.407407   4.977924   0.603732  -0.043805
     5  C   -0.043805  -0.028274  -0.030244   0.603732   4.975383   0.402619
     6  C    0.603732  -0.030244  -0.028274  -0.043805   0.402619   4.975383
     7  H    0.393619  -0.043115   0.005790  -0.000637   0.006105  -0.040627
     8  H   -0.000637   0.005790  -0.043115   0.393619  -0.040627   0.006105
     9  H    0.005996  -0.000430   0.006879  -0.039494   0.397009  -0.046058
    10  H   -0.039494   0.006879  -0.000430   0.005996  -0.046058   0.397009
    11  C    0.002442  -0.036534  -0.036534   0.002442  -0.000353  -0.000353
    12  O   -0.000083   0.010196   0.010196  -0.000083   0.000000   0.000000
    13  C   -0.060427   0.350228   0.005693   0.019607  -0.000831   0.004786
    14  H   -0.000284  -0.038118   0.002391  -0.000459   0.000083  -0.000083
    15  C    0.019607   0.005693   0.350228  -0.060427   0.004786  -0.000831
    16  H   -0.000459   0.002391  -0.038118  -0.000284  -0.000083   0.000083
               7          8          9         10         11         12
     1  C    0.393619  -0.000637   0.005996  -0.039494   0.002442  -0.000083
     2  C   -0.043115   0.005790  -0.000430   0.006879  -0.036534   0.010196
     3  C    0.005790  -0.043115   0.006879  -0.000430  -0.036534   0.010196
     4  C   -0.000637   0.393619  -0.039494   0.005996   0.002442  -0.000083
     5  C    0.006105  -0.040627   0.397009  -0.046058  -0.000353   0.000000
     6  C   -0.040627   0.006105  -0.046058   0.397009  -0.000353   0.000000
     7  H    0.483526   0.000081  -0.000312  -0.007779  -0.000035   0.000008
     8  H    0.000081   0.483526  -0.007779  -0.000312  -0.000035   0.000008
     9  H   -0.000312  -0.007779   0.484097  -0.005138   0.000009   0.000000
    10  H   -0.007779  -0.000312  -0.005138   0.484097   0.000009   0.000000
    11  C   -0.000035  -0.000035   0.000009   0.000009   4.535814   0.672912
    12  O    0.000008   0.000008   0.000000   0.000000   0.672912   7.732396
    13  C   -0.003528  -0.000317  -0.000011  -0.000238   0.327212  -0.080835
    14  H    0.002122   0.000011   0.000001  -0.000024  -0.032774   0.003536
    15  C   -0.000317  -0.003528  -0.000238  -0.000011   0.327212  -0.080835
    16  H    0.000011   0.002122  -0.000024   0.000001  -0.032774   0.003536
              13         14         15         16
     1  C   -0.060427  -0.000284   0.019607  -0.000459
     2  C    0.350228  -0.038118   0.005693   0.002391
     3  C    0.005693   0.002391   0.350228  -0.038118
     4  C    0.019607  -0.000459  -0.060427  -0.000284
     5  C   -0.000831   0.000083   0.004786  -0.000083
     6  C    0.004786  -0.000083  -0.000831   0.000083
     7  H   -0.003528   0.002122  -0.000317   0.000011
     8  H   -0.000317   0.000011  -0.003528   0.002122
     9  H   -0.000011   0.000001  -0.000238  -0.000024
    10  H   -0.000238  -0.000024  -0.000011   0.000001
    11  C    0.327212  -0.032774   0.327212  -0.032774
    12  O   -0.080835   0.003536  -0.080835   0.003536
    13  C    5.632146   0.381706  -0.305093   0.010365
    14  H    0.381706   0.461107   0.010365  -0.000100
    15  C   -0.305093   0.010365   5.632146   0.381706
    16  H    0.010365  -0.000100   0.381706   0.461107
 Mulliken charges:
               1
     1  C   -0.175684
     2  C    0.034296
     3  C    0.034296
     4  C   -0.175684
     5  C   -0.199443
     6  C   -0.199443
     7  H    0.205086
     8  H    0.205086
     9  H    0.205493
    10  H    0.205493
    11  C    0.271342
    12  O   -0.270952
    13  C   -0.280461
    14  H    0.210518
    15  C   -0.280461
    16  H    0.210518
 Sum of Mulliken charges =   0.00000
 Mulliken charges with hydrogens summed into heavy atoms:
               1
     1  C    0.029402
     2  C    0.034296
     3  C    0.034296
     4  C    0.029402
     5  C    0.006050
     6  C    0.006050
    11  C    0.271342
    12  O   -0.270952
    13  C   -0.069943
    15  C   -0.069943
 Electronic spatial extent (au):  <R**2>=           1347.4249
 Charge=              0.0000 electrons
 Dipole moment (field-independent basis, Debye):
    X=              3.9511    Y=              0.0000    Z=              0.0000  Tot=              3.9511
 Quadrupole moment (field-independent basis, Debye-Ang):
   XX=            -62.4294   YY=            -49.5214   ZZ=            -60.4620
   XY=              0.0000   XZ=              0.0000   YZ=              0.0000
 Traceless Quadrupole moment (field-independent basis, Debye-Ang):
   XX=             -4.9585   YY=              7.9496   ZZ=             -2.9911
   XY=              0.0000   XZ=              0.0000   YZ=              0.0000
 Octapole moment (field-independent basis, Debye-Ang**2):
  XXX=             59.5873  YYY=              0.0000  ZZZ=              0.0000  XYY=             -2.2769
  XXY=              0.0000  XXZ=              0.0000  XZZ=             -9.3562  YZZ=              0.0000
  YYZ=              0.0000  XYZ=              0.0000
 Hexadecapole moment (field-independent basis, Debye-Ang**3):
 XXXX=          -1365.5045 YYYY=           -400.3249 ZZZZ=            -65.8917 XXXY=              0.0000
 XXXZ=              0.0000 YYYX=              0.0000 YYYZ=              0.0000 ZZZX=              0.0000
 ZZZY=              0.0000 XXYY=           -263.8003 XXZZ=           -232.6943 YYZZ=            -96.8129
 XXYZ=              0.0000 YYXZ=              0.0000 ZZXY=              0.0000
 N-N= 4.515547951292D+02 E-N=-1.885068703930D+03  KE= 4.202148878292D+02
 Calling FoFJK, ICntrl=      2127 FMM=F ISym2X=0 I1Cent= 0 IOpClX= 0 NMat=1 NMatS=1 NMatT=0.
 ***** Axes restored to original set *****
 -------------------------------------------------------------------
 Center     Atomic                   Forces (Hartrees/Bohr)
 Number     Number              X              Y              Z
 -------------------------------------------------------------------
      1        6           0.000355092    0.000099728    0.000000119
      2        6          -0.000334848   -0.000106331   -0.000000097
      3        6          -0.000081298    0.000341788   -0.000000503
      4        6           0.000097383   -0.000355742    0.000000533
      5        6           0.000012232   -0.000184752    0.000000247
      6        6           0.000164668    0.000084660    0.000000004
      7        1          -0.000046929   -0.000001337   -0.000000034
      8        1          -0.000023022    0.000040916   -0.000000071
      9        1          -0.000049370    0.000056368   -0.000000105
     10        1          -0.000073744    0.000013291   -0.000000067
     11        6          -0.000048738    0.000027576   -0.000000038
     12        8           0.000051840   -0.000029331    0.000000064
     13        6          -0.000159328   -0.000043614   -0.000000053
     14        1           0.000110581   -0.000015398    0.000000092
     15        6          -0.000044667    0.000159037   -0.000000255
     16        1           0.000070148   -0.000086860    0.000000164
 -------------------------------------------------------------------
 Cartesian Forces:  Max     0.000355742 RMS     0.000119837

 GradGradGradGradGradGradGradGradGradGradGradGradGradGradGradGradGradGrad
 Berny optimization.
 FormGI is forming the generalized inverse of G from B-inverse, IUseBI=4.
 Internal  Forces:  Max     0.000299778 RMS     0.000063785
 Search for a local minimum.
 Step number   1 out of a maximum of   94
 All quantities printed in internal units (Hartrees-Bohrs-Radians)
 Mixed Optimization -- En-DIIS/RFO-DIIS
 Second derivative matrix not updated -- first step.
 ITU=  0
     Eigenvalues ---    0.00892   0.01011   0.01084   0.01104   0.01455
     Eigenvalues ---    0.01765   0.01896   0.01942   0.02193   0.02389
     Eigenvalues ---    0.02835   0.02862   0.05354   0.08507   0.09554
     Eigenvalues ---    0.10875   0.11087   0.12195   0.12476   0.13963
     Eigenvalues ---    0.15747   0.17213   0.19012   0.19037   0.19930
     Eigenvalues ---    0.21525   0.25643   0.28833   0.31522   0.31819
     Eigenvalues ---    0.33693   0.35734   0.35786   0.35815   0.35853
     Eigenvalues ---    0.36798   0.37029   0.46454   0.52765   0.54280
     Eigenvalues ---    0.55267   0.84016
 RFO step:  Lambda=-1.57948130D-06 EMin= 8.92241485D-03
 Linear search not attempted -- first point.
 Iteration  1 RMS(Cart)=  0.00042293 RMS(Int)=  0.00000028
 Iteration  2 RMS(Cart)=  0.00000028 RMS(Int)=  0.00000001
 Variable       Old X    -DE/DX   Delta X   Delta X   Delta X     New X
                                 (Linear)    (Quad)   (Total)
    R1        2.73181  -0.00030   0.00000  -0.00094  -0.00094   2.73087
    R2        2.55408  -0.00006   0.00000  -0.00001  -0.00001   2.55407
    R3        2.05039   0.00002   0.00000   0.00009   0.00009   2.05049
    R4        2.86131   0.00014   0.00000   0.00082   0.00082   2.86213
    R5        2.54843   0.00001   0.00000   0.00001   0.00001   2.54844
    R6        2.73181  -0.00030   0.00000  -0.00094  -0.00094   2.73087
    R7        2.54843   0.00001   0.00000   0.00001   0.00001   2.54844
    R8        2.55408  -0.00006   0.00000  -0.00001  -0.00001   2.55407
    R9        2.05039   0.00002   0.00000   0.00009   0.00009   2.05049
   R10        2.76302  -0.00020   0.00000  -0.00068  -0.00068   2.76234
   R11        2.05063   0.00007   0.00000   0.00021   0.00021   2.05084
   R12        2.05063   0.00007   0.00000   0.00021   0.00021   2.05084
   R13        2.28617   0.00006   0.00000   0.00011   0.00011   2.28627
   R14        2.84770   0.00002   0.00000   0.00000   0.00000   2.84771
   R15        2.84770   0.00002   0.00000   0.00000   0.00000   2.84771
   R16        2.04254   0.00000   0.00000  -0.00002  -0.00002   2.04252
   R17        2.04254   0.00000   0.00000  -0.00002  -0.00002   2.04252
    A1        2.08237   0.00003   0.00000   0.00027   0.00027   2.08264
    A2        2.08519   0.00002   0.00000   0.00029   0.00029   2.08548
    A3        2.11562  -0.00006   0.00000  -0.00056  -0.00056   2.11507
    A4        2.06995  -0.00003   0.00000  -0.00019  -0.00019   2.06976
    A5        2.30249   0.00003   0.00000   0.00025   0.00025   2.30274
    A6        1.91075   0.00000   0.00000  -0.00006  -0.00006   1.91069
    A7        2.06995  -0.00003   0.00000  -0.00019  -0.00019   2.06976
    A8        1.91075   0.00000   0.00000  -0.00006  -0.00006   1.91069
    A9        2.30249   0.00003   0.00000   0.00025   0.00025   2.30274
   A10        2.08237   0.00003   0.00000   0.00027   0.00027   2.08264
   A11        2.08519   0.00002   0.00000   0.00029   0.00029   2.08548
   A12        2.11562  -0.00006   0.00000  -0.00056  -0.00056   2.11507
   A13        2.13086   0.00000   0.00000  -0.00007  -0.00007   2.13078
   A14        2.09480   0.00001   0.00000   0.00002   0.00002   2.09482
   A15        2.05753  -0.00001   0.00000   0.00006   0.00006   2.05759
   A16        2.13086   0.00000   0.00000  -0.00007  -0.00007   2.13078
   A17        2.09480   0.00001   0.00000   0.00002   0.00002   2.09482
   A18        2.05753  -0.00001   0.00000   0.00006   0.00006   2.05759
   A19        2.21299  -0.00003   0.00000  -0.00016  -0.00016   2.21283
   A20        2.21299  -0.00003   0.00000  -0.00016  -0.00016   2.21283
   A21        1.85721   0.00007   0.00000   0.00032   0.00032   1.85753
   A22        1.87304  -0.00003   0.00000  -0.00010  -0.00010   1.87294
   A23        2.25161   0.00013   0.00000   0.00127   0.00127   2.25288
   A24        2.15854  -0.00010   0.00000  -0.00117  -0.00117   2.15737
   A25        1.87304  -0.00003   0.00000  -0.00010  -0.00010   1.87294
   A26        2.25161   0.00013   0.00000   0.00127   0.00127   2.25288
   A27        2.15854  -0.00010   0.00000  -0.00117  -0.00117   2.15737
    D1        0.00000   0.00000   0.00000   0.00000   0.00000   0.00000
    D2       -3.14159   0.00000   0.00000   0.00000   0.00000   3.14159
    D3       -3.14159   0.00000   0.00000   0.00000   0.00000  -3.14159
    D4        0.00000   0.00000   0.00000   0.00000   0.00000   0.00000
    D5        0.00000   0.00000   0.00000   0.00000   0.00000   0.00000
    D6        3.14159   0.00000   0.00000   0.00000   0.00000   3.14159
    D7        3.14159   0.00000   0.00000   0.00000   0.00000   3.14159
    D8        0.00000   0.00000   0.00000   0.00000   0.00000   0.00000
    D9        0.00000   0.00000   0.00000   0.00000   0.00000   0.00000
   D10        3.14159   0.00000   0.00000   0.00000   0.00000   3.14159
   D11        3.14159   0.00000   0.00000   0.00000   0.00000   3.14159
   D12        0.00000   0.00000   0.00000   0.00000   0.00000   0.00000
   D13        3.14159   0.00000   0.00000   0.00000   0.00000   3.14159
   D14        0.00000   0.00000   0.00000   0.00000   0.00000   0.00000
   D15        0.00000   0.00000   0.00000   0.00000   0.00000   0.00000
   D16        3.14159   0.00000   0.00000   0.00000   0.00000   3.14159
   D17        0.00000   0.00000   0.00000   0.00000   0.00000   0.00000
   D18        3.14159   0.00000   0.00000   0.00000   0.00000   3.14159
   D19        3.14159   0.00000   0.00000   0.00000   0.00000   3.14159
   D20        0.00000   0.00000   0.00000   0.00000   0.00000   0.00000
   D21        0.00000   0.00000   0.00000   0.00000   0.00000   0.00000
   D22        3.14159   0.00000   0.00000   0.00000   0.00000   3.14159
   D23       -3.14159   0.00000   0.00000   0.00000   0.00000   3.14159
   D24        0.00000   0.00000   0.00000   0.00000   0.00000   0.00000
   D25        0.00000   0.00000   0.00000   0.00000   0.00000   0.00000
   D26       -3.14159   0.00000   0.00000   0.00000   0.00000  -3.14159
   D27       -3.14159   0.00000   0.00000   0.00000   0.00000  -3.14159
   D28        0.00000   0.00000   0.00000   0.00000   0.00000   0.00000
   D29        0.00000   0.00000   0.00000   0.00000   0.00000   0.00000
   D30        3.14159   0.00000   0.00000   0.00000   0.00000  -3.14159
   D31        3.14159   0.00000   0.00000   0.00000   0.00000   3.14159
   D32        0.00000   0.00000   0.00000   0.00000   0.00000   0.00000
   D33        3.14159   0.00000   0.00000   0.00000   0.00000   3.14159
   D34        0.00000   0.00000   0.00000   0.00000   0.00000   0.00000
   D35        0.00000   0.00000   0.00000   0.00000   0.00000   0.00000
   D36       -3.14159   0.00000   0.00000   0.00000   0.00000   3.14159
   D37       -3.14159   0.00000   0.00000   0.00000   0.00000   3.14159
   D38        0.00000   0.00000   0.00000   0.00000   0.00000   0.00000
   D39        0.00000   0.00000   0.00000   0.00000   0.00000   0.00000
   D40       -3.14159   0.00000   0.00000   0.00000   0.00000  -3.14159
         Item               Value     Threshold  Converged?
 Maximum Force            0.000300     0.000450     YES
 RMS     Force            0.000064     0.000300     YES
 Maximum Displacement     0.002221     0.001800     NO 
 RMS     Displacement     0.000423     0.001200     YES
 Predicted change in Energy=-7.897406D-07
 GradGradGradGradGradGradGradGradGradGradGradGradGradGradGradGradGradGrad

                          Input orientation:                          
 ---------------------------------------------------------------------
 Center     Atomic      Atomic             Coordinates (Angstroms)
 Number     Number       Type             X           Y           Z
 ---------------------------------------------------------------------
      1          6           0       -3.324556   -0.447231   -0.000015
      2          6           0       -1.879625   -0.470258    0.001008
      3          6           0       -1.133778    0.847938   -0.000192
      4          6           0       -1.897644    2.074666   -0.002311
      5          6           0       -3.247825    2.013748   -0.003160
      6          6           0       -3.967669    0.741509   -0.002002
      7          1           0       -3.873674   -1.383099    0.000824
      8          1           0       -1.378212    3.027331   -0.003192
      9          1           0       -3.832648    2.927946   -0.004750
     10          1           0       -5.052495    0.772012   -0.002787
     11          6           0        0.385264   -0.881649    0.003099
     12          8           0        1.438242   -1.477432    0.004597
     13          6           0       -0.994452   -1.487665    0.002939
     14          1           0       -1.180200   -2.552437    0.004194
     15          6           0        0.194197    0.613129    0.001026
     16          1           0        1.011256    1.320700    0.000668
 ---------------------------------------------------------------------
                    Distance matrix (angstroms):
                    1          2          3          4          5
     1  C    0.000000
     2  C    1.445115   0.000000
     3  C    2.544990   1.514573   0.000000
     4  C    2.897593   2.544990   1.445115   0.000000
     5  C    2.462176   2.835889   2.414190   1.351555   0.000000
     6  C    1.351555   2.414190   2.835889   2.462176   1.461769
     7  H    1.085072   2.193059   3.533350   3.982568   3.454022
     8  H    3.982568   3.533350   2.193059   1.085072   2.126688
     9  H    3.413209   3.919454   3.407396   2.114789   1.085255
    10  H    2.114789   3.407396   3.919454   3.413209   2.190603
    11  C    3.735170   2.301950   2.301950   3.735170   4.645718
    12  O    4.872944   3.467370   3.467370   4.872944   5.843596
    13  C    2.551842   1.348574   2.339758   3.675049   4.163846
    14  H    3.005025   2.196514   3.400695   4.682397   5.012501
    15  C    3.675049   2.339758   1.348574   2.551842   3.716081
    16  H    4.682397   3.400695   2.196514   3.005025   4.315101
                    6          7          8          9         10
     6  C    0.000000
     7  H    2.126688   0.000000
     8  H    3.454022   5.067469   0.000000
     9  H    2.190603   4.311244   2.456448   0.000000
    10  H    1.085255   2.456448   4.311244   2.477112   0.000000
    11  C    4.645718   4.288358   4.288358   5.683648   5.683648
    12  O    5.843596   5.312755   5.312755   6.869477   6.869477
    13  C    3.716081   2.881121   4.531280   5.249098   4.644770
    14  H    4.315101   2.936352   5.583285   6.088526   5.103594
    15  C    4.163846   4.531280   2.881121   4.644770   5.249098
    16  H    5.012501   5.583285   2.936352   5.103594   6.088526
                   11         12         13         14         15
    11  C    0.000000
    12  O    1.209844   0.000000
    13  C    1.506942   2.432716   0.000000
    14  H    2.289588   2.830525   1.080853   0.000000
    15  C    1.506942   2.432716   2.413758   3.451056   0.000000
    16  H    2.289588   2.830525   3.451056   4.450133   1.080853
                   16
    16  H    0.000000
 Stoichiometry    C9H6O
 Framework group  C2[C2(CO),X(C8H6)]
 Deg. of freedom    21
 Full point group                 C2      NOp   2
 Omega: Change in point group or standard orientation.

 Old FWG=C01  [X(C9H6O1)]
 New FWG=C02  [C2(C1O1),X(C8H6)]
 Largest Abelian subgroup         C2      NOp   2
 Largest concise Abelian subgroup C2      NOp   2
                         Standard orientation:                         
 ---------------------------------------------------------------------
 Center     Atomic      Atomic             Coordinates (Angstroms)
 Number     Number       Type             X           Y           Z
 ---------------------------------------------------------------------
      1          6           0        0.000000   -1.448797   -1.344269
      2          6           0        0.000000   -0.757286   -0.075345
      3          6           0        0.000000    0.757286   -0.075345
      4          6           0        0.000000    1.448797   -1.344269
      5          6           0        0.000000    0.730884   -2.489390
      6          6           0        0.000000   -0.730884   -2.489390
      7          1           0        0.000000   -2.533734   -1.361324
      8          1           0        0.000000    2.533734   -1.361324
      9          1           0        0.000000    1.238556   -3.448582
     10          1           0        0.000000   -1.238556   -3.448582
     11          6           0        0.000000    0.000000    2.098474
     12          8           0        0.000000    0.000000    3.308318
     13          6           0        0.000000   -1.206879    1.196080
     14          1           0        0.000000   -2.225066    1.558760
     15          6           0        0.000000    1.206879    1.196080
     16          1           0        0.000000    2.225066    1.558760
 ---------------------------------------------------------------------
 Rotational constants (GHZ):      3.6640441      1.0382448      0.8090049
 Standard basis: 6-311G(d) (5D, 7F)
 There are   107 symmetry adapted cartesian basis functions of A   symmetry.
 There are   101 symmetry adapted cartesian basis functions of B   symmetry.
 There are   101 symmetry adapted basis functions of A   symmetry.
 There are    97 symmetry adapted basis functions of B   symmetry.
   198 basis functions,   350 primitive gaussians,   208 cartesian basis functions
    34 alpha electrons       34 beta electrons
       nuclear repulsion energy       451.5754927129 Hartrees.
 NAtoms=   16 NActive=   16 NUniq=    9 SFac= 3.16D+00 NAtFMM=   60 NAOKFM=F Big=F
 Integral buffers will be    131072 words long.
 Raffenetti 2 integral format.
 Two-electron integral symmetry is turned on.
 One-electron integrals computed using PRISM.
 NBasis=   198 RedAO= T EigKep=  1.21D-04  NBF=   101    97
 NBsUse=   198 1.00D-06 EigRej= -1.00D+00 NBFU=   101    97
 Initial guess from the checkpoint file:  "/home/stanger/chk/indene-1.chk"
 B after Tr=     0.000000    0.000000    0.000000
         Rot=    0.707107    0.000000   -0.707107    0.000000 Ang= -90.00 deg.
 Initial guess orbital symmetries:
       Occupied  (A) (A) (A) (B) (A) (B) (B) (A) (B) (A) (A) (A)
                 (A) (B) (B) (A) (A) (B) (A) (A) (B) (A) (B) (B)
                 (A) (B) (A) (B) (B) (A) (B) (A) (B) (A)
       Virtual   (A) (A) (A) (A) (A) (A) (A) (A) (A) (A) (A) (A)
                 (A) (A) (A) (A) (A) (A) (A) (A) (A) (A) (A) (A)
                 (A) (A) (A) (A) (A) (A) (A) (A) (A) (A) (A) (A)
                 (A) (A) (A) (A) (A) (A) (A) (A) (A) (A) (A) (A)
                 (A) (A) (A) (A) (A) (A) (A) (A) (A) (A) (A) (A)
                 (A) (A) (A) (A) (A) (A) (A) (A) (A) (A) (A) (A)
                 (A) (A) (A) (A) (A) (A) (A) (A) (A) (A) (B) (B)
                 (B) (B) (B) (B) (B) (B) (B) (B) (B) (B) (B) (B)
                 (B) (B) (B) (B) (B) (B) (B) (B) (B) (B) (B) (B)
                 (B) (B) (B) (B) (B) (B) (B) (B) (B) (B) (B) (B)
                 (B) (B) (B) (B) (B) (B) (B) (B) (B) (B) (B) (B)
                 (B) (B) (B) (B) (B) (B) (B) (B) (B) (B) (B) (B)
                 (B) (B) (B) (B) (B) (B) (B) (B) (B) (B) (B) (B)
                 (B) (B) (B) (B) (B) (B) (B) (B)
 Keep R1 ints in memory in symmetry-blocked form, NReq=291313470.
 Requested convergence on RMS density matrix=1.00D-08 within 128 cycles.
 Requested convergence on MAX density matrix=1.00D-06.
 Requested convergence on             energy=1.00D-06.
 No special actions if energy rises.
 SCF Done:  E(RB3LYP) =  -421.821887527     A.U. after    8 cycles
            NFock=  8  Conv=0.27D-08     -V/T= 2.0038
 Calling FoFJK, ICntrl=      2127 FMM=F ISym2X=1 I1Cent= 0 IOpClX= 0 NMat=1 NMatS=1 NMatT=0.
 ***** Axes restored to original set *****
 -------------------------------------------------------------------
 Center     Atomic                   Forces (Hartrees/Bohr)
 Number     Number              X              Y              Z
 -------------------------------------------------------------------
      1        6          -0.000000383   -0.000000021    0.000000000
      2        6           0.000000293   -0.000000164    0.000000000
      3        6           0.000000291   -0.000000167    0.000000000
      4        6          -0.000000179    0.000000338   -0.000000001
      5        6           0.000000095    0.000000142    0.000000000
      6        6          -0.000000073   -0.000000154    0.000000000
      7        1           0.000000000   -0.000000012    0.000000000
      8        1           0.000000011    0.000000006    0.000000000
      9        1          -0.000000030    0.000000032    0.000000000
     10        1          -0.000000043    0.000000009    0.000000000
     11        6           0.000000006   -0.000000004    0.000000000
     12        8          -0.000000018    0.000000010    0.000000000
     13        6          -0.000000078   -0.000000108    0.000000000
     14        1           0.000000021   -0.000000026    0.000000000
     15        6           0.000000053    0.000000123    0.000000000
     16        1           0.000000033   -0.000000005    0.000000000
 -------------------------------------------------------------------
 Cartesian Forces:  Max     0.000000383 RMS     0.000000114

 GradGradGradGradGradGradGradGradGradGradGradGradGradGradGradGradGradGrad
 Berny optimization.
 Using GEDIIS/GDIIS optimizer.
 FormGI is forming the generalized inverse of G from B-inverse, IUseBI=4.
 Internal  Forces:  Max     0.000000385 RMS     0.000000073
 Search for a local minimum.
 Step number   2 out of a maximum of   94
 All quantities printed in internal units (Hartrees-Bohrs-Radians)
 Mixed Optimization -- En-DIIS/RFO-DIIS
 Swapping is turned off.
 Update second derivatives using D2CorX and points    1    2
 DE= -7.90D-07 DEPred=-7.90D-07 R= 1.00D+00
 Trust test= 1.00D+00 RLast= 3.21D-03 DXMaxT set to 3.00D-01
 ITU=  0  0
     Eigenvalues ---    0.00892   0.01011   0.01084   0.01104   0.01455
     Eigenvalues ---    0.01765   0.01896   0.01942   0.02193   0.02389
     Eigenvalues ---    0.02835   0.02862   0.05354   0.08507   0.09551
     Eigenvalues ---    0.10875   0.11088   0.12195   0.12476   0.13963
     Eigenvalues ---    0.15747   0.17211   0.19012   0.19037   0.19930
     Eigenvalues ---    0.21525   0.25643   0.28829   0.31522   0.31842
     Eigenvalues ---    0.33694   0.35734   0.35786   0.35814   0.35853
     Eigenvalues ---    0.36798   0.37028   0.46454   0.52765   0.54285
     Eigenvalues ---    0.55268   0.84016
 En-DIIS/RFO-DIIS IScMMF=        0 using points:     2    1
 RFO step:  Lambda= 0.00000000D+00.
 DidBck=F Rises=F RFO-DIIS coefs:    0.99968    0.00032
 Iteration  1 RMS(Cart)=  0.00000033 RMS(Int)=  0.00000001
 ClnCor:  largest displacement from symmetrization is 7.84D-12 for atom     8.
 Variable       Old X    -DE/DX   Delta X   Delta X   Delta X     New X
                                 (Linear)    (Quad)   (Total)
    R1        2.73087   0.00000   0.00000   0.00000   0.00000   2.73087
    R2        2.55407   0.00000   0.00000   0.00000   0.00000   2.55407
    R3        2.05049   0.00000   0.00000   0.00000   0.00000   2.05049
    R4        2.86213   0.00000   0.00000   0.00000   0.00000   2.86213
    R5        2.54844   0.00000   0.00000   0.00000   0.00000   2.54844
    R6        2.73087   0.00000   0.00000   0.00000   0.00000   2.73087
    R7        2.54844   0.00000   0.00000   0.00000   0.00000   2.54844
    R8        2.55407   0.00000   0.00000   0.00000   0.00000   2.55407
    R9        2.05049   0.00000   0.00000   0.00000   0.00000   2.05049
   R10        2.76234   0.00000   0.00000   0.00000   0.00000   2.76234
   R11        2.05084   0.00000   0.00000   0.00000   0.00000   2.05084
   R12        2.05084   0.00000   0.00000   0.00000   0.00000   2.05084
   R13        2.28627   0.00000   0.00000   0.00000   0.00000   2.28627
   R14        2.84771   0.00000   0.00000   0.00000   0.00000   2.84771
   R15        2.84771   0.00000   0.00000   0.00000   0.00000   2.84771
   R16        2.04252   0.00000   0.00000   0.00000   0.00000   2.04252
   R17        2.04252   0.00000   0.00000   0.00000   0.00000   2.04252
    A1        2.08264   0.00000   0.00000   0.00000   0.00000   2.08264
    A2        2.08548   0.00000   0.00000   0.00000   0.00000   2.08548
    A3        2.11507   0.00000   0.00000   0.00000   0.00000   2.11507
    A4        2.06976   0.00000   0.00000   0.00000   0.00000   2.06976
    A5        2.30274   0.00000   0.00000   0.00000   0.00000   2.30274
    A6        1.91069   0.00000   0.00000   0.00000   0.00000   1.91069
    A7        2.06976   0.00000   0.00000   0.00000   0.00000   2.06976
    A8        1.91069   0.00000   0.00000   0.00000   0.00000   1.91069
    A9        2.30274   0.00000   0.00000   0.00000   0.00000   2.30274
   A10        2.08264   0.00000   0.00000   0.00000   0.00000   2.08264
   A11        2.08548   0.00000   0.00000   0.00000   0.00000   2.08548
   A12        2.11507   0.00000   0.00000   0.00000   0.00000   2.11507
   A13        2.13078   0.00000   0.00000   0.00000   0.00000   2.13078
   A14        2.09482   0.00000   0.00000   0.00000   0.00000   2.09482
   A15        2.05759   0.00000   0.00000   0.00000   0.00000   2.05758
   A16        2.13078   0.00000   0.00000   0.00000   0.00000   2.13078
   A17        2.09482   0.00000   0.00000   0.00000   0.00000   2.09482
   A18        2.05759   0.00000   0.00000   0.00000   0.00000   2.05758
   A19        2.21283   0.00000   0.00000   0.00000   0.00000   2.21283
   A20        2.21283   0.00000   0.00000   0.00000   0.00000   2.21283
   A21        1.85753   0.00000   0.00000   0.00000   0.00000   1.85753
   A22        1.87294   0.00000   0.00000   0.00000   0.00000   1.87294
   A23        2.25288   0.00000   0.00000   0.00000   0.00000   2.25288
   A24        2.15737   0.00000   0.00000   0.00000   0.00000   2.15737
   A25        1.87294   0.00000   0.00000   0.00000   0.00000   1.87294
   A26        2.25288   0.00000   0.00000   0.00000   0.00000   2.25288
   A27        2.15737   0.00000   0.00000   0.00000   0.00000   2.15737
    D1        0.00000   0.00000   0.00000   0.00000   0.00000   0.00000
    D2        3.14159   0.00000   0.00000   0.00000   0.00000   3.14159
    D3        3.14159   0.00000   0.00000   0.00000   0.00000   3.14159
    D4        0.00000   0.00000   0.00000   0.00000   0.00000   0.00000
    D5        0.00000   0.00000   0.00000   0.00000   0.00000   0.00000
    D6        3.14159   0.00000   0.00000   0.00000   0.00000   3.14159
    D7       -3.14159   0.00000   0.00000   0.00000   0.00000   3.14159
    D8        0.00000   0.00000   0.00000   0.00000   0.00000   0.00000
    D9        0.00000   0.00000   0.00000   0.00000   0.00000   0.00000
   D10        3.14159   0.00000   0.00000   0.00000   0.00000   3.14159
   D11        3.14159   0.00000   0.00000   0.00000   0.00000   3.14159
   D12        0.00000   0.00000   0.00000   0.00000   0.00000   0.00000
   D13        3.14159   0.00000   0.00000   0.00000   0.00000   3.14159
   D14        0.00000   0.00000   0.00000   0.00000   0.00000   0.00000
   D15        0.00000   0.00000   0.00000   0.00000   0.00000   0.00000
   D16        3.14159   0.00000   0.00000   0.00000   0.00000   3.14159
   D17        0.00000   0.00000   0.00000   0.00000   0.00000   0.00000
   D18       -3.14159   0.00000   0.00000   0.00000   0.00000   3.14159
   D19       -3.14159   0.00000   0.00000   0.00000   0.00000  -3.14159
   D20        0.00000   0.00000   0.00000   0.00000   0.00000   0.00000
   D21        0.00000   0.00000   0.00000   0.00000   0.00000   0.00000
   D22        3.14159   0.00000   0.00000   0.00000   0.00000   3.14159
   D23        3.14159   0.00000   0.00000   0.00000   0.00000   3.14159
   D24        0.00000   0.00000   0.00000   0.00000   0.00000   0.00000
   D25        0.00000   0.00000   0.00000   0.00000   0.00000   0.00000
   D26        3.14159   0.00000   0.00000   0.00000   0.00000   3.14159
   D27        3.14159   0.00000   0.00000   0.00000   0.00000   3.14159
   D28        0.00000   0.00000   0.00000   0.00000   0.00000   0.00000
   D29        0.00000   0.00000   0.00000   0.00000   0.00000   0.00000
   D30        3.14159   0.00000   0.00000   0.00000   0.00000   3.14159
   D31        3.14159   0.00000   0.00000   0.00000   0.00000   3.14159
   D32        0.00000   0.00000   0.00000   0.00000   0.00000   0.00000
   D33        3.14159   0.00000   0.00000   0.00000   0.00000   3.14159
   D34        0.00000   0.00000   0.00000   0.00000   0.00000   0.00000
   D35        0.00000   0.00000   0.00000   0.00000   0.00000   0.00000
   D36        3.14159   0.00000   0.00000   0.00000   0.00000   3.14159
   D37        3.14159   0.00000   0.00000   0.00000   0.00000   3.14159
   D38        0.00000   0.00000   0.00000   0.00000   0.00000   0.00000
   D39        0.00000   0.00000   0.00000   0.00000   0.00000   0.00000
   D40        3.14159   0.00000   0.00000   0.00000   0.00000  -3.14159
         Item               Value     Threshold  Converged?
 Maximum Force            0.000000     0.000450     YES
 RMS     Force            0.000000     0.000300     YES
 Maximum Displacement     0.000001     0.001800     YES
 RMS     Displacement     0.000000     0.001200     YES
 Predicted change in Energy=-6.958737D-13
 Optimization completed.
    -- Stationary point found.
                           ----------------------------
                           !   Optimized Parameters   !
                           ! (Angstroms and Degrees)  !
 --------------------------                            --------------------------
 ! Name  Definition              Value          Derivative Info.                !
 --------------------------------------------------------------------------------
 ! R1    R(1,2)                  1.4451         -DE/DX =    0.0                 !
 ! R2    R(1,6)                  1.3516         -DE/DX =    0.0                 !
 ! R3    R(1,7)                  1.0851         -DE/DX =    0.0                 !
 ! R4    R(2,3)                  1.5146         -DE/DX =    0.0                 !
 ! R5    R(2,13)                 1.3486         -DE/DX =    0.0                 !
 ! R6    R(3,4)                  1.4451         -DE/DX =    0.0                 !
 ! R7    R(3,15)                 1.3486         -DE/DX =    0.0                 !
 ! R8    R(4,5)                  1.3516         -DE/DX =    0.0                 !
 ! R9    R(4,8)                  1.0851         -DE/DX =    0.0                 !
 ! R10   R(5,6)                  1.4618         -DE/DX =    0.0                 !
 ! R11   R(5,9)                  1.0853         -DE/DX =    0.0                 !
 ! R12   R(6,10)                 1.0853         -DE/DX =    0.0                 !
 ! R13   R(11,12)                1.2098         -DE/DX =    0.0                 !
 ! R14   R(11,13)                1.5069         -DE/DX =    0.0                 !
 ! R15   R(11,15)                1.5069         -DE/DX =    0.0                 !
 ! R16   R(13,14)                1.0809         -DE/DX =    0.0                 !
 ! R17   R(15,16)                1.0809         -DE/DX =    0.0                 !
 ! A1    A(2,1,6)              119.3266         -DE/DX =    0.0                 !
 ! A2    A(2,1,7)              119.4891         -DE/DX =    0.0                 !
 ! A3    A(6,1,7)              121.1843         -DE/DX =    0.0                 !
 ! A4    A(1,2,3)              118.5885         -DE/DX =    0.0                 !
 ! A5    A(1,2,13)             131.9372         -DE/DX =    0.0                 !
 ! A6    A(3,2,13)             109.4743         -DE/DX =    0.0                 !
 ! A7    A(2,3,4)              118.5885         -DE/DX =    0.0                 !
 ! A8    A(2,3,15)             109.4743         -DE/DX =    0.0                 !
 ! A9    A(4,3,15)             131.9372         -DE/DX =    0.0                 !
 ! A10   A(3,4,5)              119.3266         -DE/DX =    0.0                 !
 ! A11   A(3,4,8)              119.4891         -DE/DX =    0.0                 !
 ! A12   A(5,4,8)              121.1843         -DE/DX =    0.0                 !
 ! A13   A(4,5,6)              122.0849         -DE/DX =    0.0                 !
 ! A14   A(4,5,9)              120.0242         -DE/DX =    0.0                 !
 ! A15   A(6,5,9)              117.8909         -DE/DX =    0.0                 !
 ! A16   A(1,6,5)              122.0849         -DE/DX =    0.0                 !
 ! A17   A(1,6,10)             120.0242         -DE/DX =    0.0                 !
 ! A18   A(5,6,10)             117.8909         -DE/DX =    0.0                 !
 ! A19   A(12,11,13)           126.7858         -DE/DX =    0.0                 !
 ! A20   A(12,11,15)           126.7858         -DE/DX =    0.0                 !
 ! A21   A(13,11,15)           106.4284         -DE/DX =    0.0                 !
 ! A22   A(2,13,11)            107.3115         -DE/DX =    0.0                 !
 ! A23   A(2,13,14)            129.0803         -DE/DX =    0.0                 !
 ! A24   A(11,13,14)           123.6082         -DE/DX =    0.0                 !
 ! A25   A(3,15,11)            107.3115         -DE/DX =    0.0                 !
 ! A26   A(3,15,16)            129.0803         -DE/DX =    0.0                 !
 ! A27   A(11,15,16)           123.6082         -DE/DX =    0.0                 !
 ! D1    D(6,1,2,3)              0.0            -DE/DX =    0.0                 !
 ! D2    D(6,1,2,13)           180.0            -DE/DX =    0.0                 !
 ! D3    D(7,1,2,3)            180.0            -DE/DX =    0.0                 !
 ! D4    D(7,1,2,13)             0.0            -DE/DX =    0.0                 !
 ! D5    D(2,1,6,5)              0.0            -DE/DX =    0.0                 !
 ! D6    D(2,1,6,10)           180.0            -DE/DX =    0.0                 !
 ! D7    D(7,1,6,5)            180.0            -DE/DX =    0.0                 !
 ! D8    D(7,1,6,10)             0.0            -DE/DX =    0.0                 !
 ! D9    D(1,2,3,4)              0.0            -DE/DX =    0.0                 !
 ! D10   D(1,2,3,15)           180.0            -DE/DX =    0.0                 !
 ! D11   D(13,2,3,4)           180.0            -DE/DX =    0.0                 !
 ! D12   D(13,2,3,15)            0.0            -DE/DX =    0.0                 !
 ! D13   D(1,2,13,11)          180.0            -DE/DX =    0.0                 !
 ! D14   D(1,2,13,14)            0.0            -DE/DX =    0.0                 !
 ! D15   D(3,2,13,11)            0.0            -DE/DX =    0.0                 !
 ! D16   D(3,2,13,14)          180.0            -DE/DX =    0.0                 !
 ! D17   D(2,3,4,5)              0.0            -DE/DX =    0.0                 !
 ! D18   D(2,3,4,8)            180.0            -DE/DX =    0.0                 !
 ! D19   D(15,3,4,5)          -180.0            -DE/DX =    0.0                 !
 ! D20   D(15,3,4,8)             0.0            -DE/DX =    0.0                 !
 ! D21   D(2,3,15,11)            0.0            -DE/DX =    0.0                 !
 ! D22   D(2,3,15,16)          180.0            -DE/DX =    0.0                 !
 ! D23   D(4,3,15,11)          180.0            -DE/DX =    0.0                 !
 ! D24   D(4,3,15,16)            0.0            -DE/DX =    0.0                 !
 ! D25   D(3,4,5,6)              0.0            -DE/DX =    0.0                 !
 ! D26   D(3,4,5,9)            180.0            -DE/DX =    0.0                 !
 ! D27   D(8,4,5,6)            180.0            -DE/DX =    0.0                 !
 ! D28   D(8,4,5,9)              0.0            -DE/DX =    0.0                 !
 ! D29   D(4,5,6,1)              0.0            -DE/DX =    0.0                 !
 ! D30   D(4,5,6,10)           180.0            -DE/DX =    0.0                 !
 ! D31   D(9,5,6,1)            180.0            -DE/DX =    0.0                 !
 ! D32   D(9,5,6,10)             0.0            -DE/DX =    0.0                 !
 ! D33   D(12,11,13,2)         180.0            -DE/DX =    0.0                 !
 ! D34   D(12,11,13,14)          0.0            -DE/DX =    0.0                 !
 ! D35   D(15,11,13,2)           0.0            -DE/DX =    0.0                 !
 ! D36   D(15,11,13,14)        180.0            -DE/DX =    0.0                 !
 ! D37   D(12,11,15,3)         180.0            -DE/DX =    0.0                 !
 ! D38   D(12,11,15,16)          0.0            -DE/DX =    0.0                 !
 ! D39   D(13,11,15,3)           0.0            -DE/DX =    0.0                 !
 ! D40   D(13,11,15,16)       -180.0            -DE/DX =    0.0                 !
 --------------------------------------------------------------------------------
 GradGradGradGradGradGradGradGradGradGradGradGradGradGradGradGradGradGrad

                          Input orientation:                          
 ---------------------------------------------------------------------
 Center     Atomic      Atomic             Coordinates (Angstroms)
 Number     Number       Type             X           Y           Z
 ---------------------------------------------------------------------
      1          6           0       -3.324556   -0.447231   -0.000015
      2          6           0       -1.879625   -0.470258    0.001008
      3          6           0       -1.133778    0.847938   -0.000192
      4          6           0       -1.897644    2.074666   -0.002311
      5          6           0       -3.247825    2.013748   -0.003160
      6          6           0       -3.967669    0.741509   -0.002002
      7          1           0       -3.873674   -1.383099    0.000824
      8          1           0       -1.378212    3.027331   -0.003192
      9          1           0       -3.832648    2.927946   -0.004750
     10          1           0       -5.052495    0.772012   -0.002787
     11          6           0        0.385264   -0.881649    0.003099
     12          8           0        1.438242   -1.477432    0.004597
     13          6           0       -0.994452   -1.487665    0.002939
     14          1           0       -1.180200   -2.552437    0.004194
     15          6           0        0.194197    0.613129    0.001026
     16          1           0        1.011256    1.320700    0.000668
 ---------------------------------------------------------------------
                    Distance matrix (angstroms):
                    1          2          3          4          5
     1  C    0.000000
     2  C    1.445115   0.000000
     3  C    2.544990   1.514573   0.000000
     4  C    2.897593   2.544990   1.445115   0.000000
     5  C    2.462176   2.835889   2.414190   1.351555   0.000000
     6  C    1.351555   2.414190   2.835889   2.462176   1.461769
     7  H    1.085072   2.193059   3.533350   3.982568   3.454022
     8  H    3.982568   3.533350   2.193059   1.085072   2.126688
     9  H    3.413209   3.919454   3.407396   2.114789   1.085255
    10  H    2.114789   3.407396   3.919454   3.413209   2.190603
    11  C    3.735170   2.301950   2.301950   3.735170   4.645718
    12  O    4.872944   3.467370   3.467370   4.872944   5.843596
    13  C    2.551842   1.348574   2.339758   3.675049   4.163846
    14  H    3.005025   2.196514   3.400695   4.682397   5.012501
    15  C    3.675049   2.339758   1.348574   2.551842   3.716081
    16  H    4.682397   3.400695   2.196514   3.005025   4.315101
                    6          7          8          9         10
     6  C    0.000000
     7  H    2.126688   0.000000
     8  H    3.454022   5.067469   0.000000
     9  H    2.190603   4.311244   2.456448   0.000000
    10  H    1.085255   2.456448   4.311244   2.477112   0.000000
    11  C    4.645718   4.288358   4.288358   5.683648   5.683648
    12  O    5.843596   5.312755   5.312755   6.869477   6.869477
    13  C    3.716081   2.881121   4.531280   5.249098   4.644770
    14  H    4.315101   2.936352   5.583285   6.088526   5.103594
    15  C    4.163846   4.531280   2.881121   4.644770   5.249098
    16  H    5.012501   5.583285   2.936352   5.103594   6.088526
                   11         12         13         14         15
    11  C    0.000000
    12  O    1.209844   0.000000
    13  C    1.506942   2.432716   0.000000
    14  H    2.289588   2.830525   1.080853   0.000000
    15  C    1.506942   2.432716   2.413758   3.451056   0.000000
    16  H    2.289588   2.830525   3.451056   4.450133   1.080853
                   16
    16  H    0.000000
 Stoichiometry    C9H6O
 Framework group  C2V[C2(CO),SGV(C8H6)]
 Deg. of freedom    15
 Full point group                 C2V     NOp   4
 Omega: Change in point group or standard orientation.

 Old FWG=C02  [C2(C1O1),X(C8H6)]
 New FWG=C02V [C2(C1O1),SGV(C8H6)]
 Largest Abelian subgroup         C2V     NOp   4
 Largest concise Abelian subgroup C2      NOp   2
                         Standard orientation:                         
 ---------------------------------------------------------------------
 Center     Atomic      Atomic             Coordinates (Angstroms)
 Number     Number       Type             X           Y           Z
 ---------------------------------------------------------------------
      1          6           0        0.000000   -1.448797   -1.344269
      2          6           0        0.000000   -0.757286   -0.075345
      3          6           0        0.000000    0.757286   -0.075345
      4          6           0        0.000000    1.448797   -1.344269
      5          6           0        0.000000    0.730884   -2.489390
      6          6           0        0.000000   -0.730884   -2.489390
      7          1           0        0.000000   -2.533734   -1.361324
      8          1           0        0.000000    2.533734   -1.361324
      9          1           0        0.000000    1.238556   -3.448582
     10          1           0        0.000000   -1.238556   -3.448582
     11          6           0        0.000000    0.000000    2.098474
     12          8           0        0.000000    0.000000    3.308318
     13          6           0        0.000000   -1.206879    1.196080
     14          1           0        0.000000   -2.225066    1.558760
     15          6           0        0.000000    1.206879    1.196080
     16          1           0        0.000000    2.225066    1.558760
 ---------------------------------------------------------------------
 Rotational constants (GHZ):      3.6640441      1.0382448      0.8090049

 **********************************************************************

            Population analysis using the SCF density.

 **********************************************************************

 Orbital symmetries:
       Occupied  (A1) (A1) (A1) (B2) (A1) (B2) (B2) (A1) (B2) (A1)
                 (A1) (A1) (A1) (B2) (B2) (A1) (A1) (B2) (A1) (A1)
                 (B2) (A1) (B2) (B1) (A1) (B2) (A1) (B2) (B1) (A1)
                 (B1) (A2) (B2) (A2)
       Virtual   (B1) (B1) (A2) (A1) (B2) (A1) (B1) (B2) (A1) (B2)
                 (A2) (B2) (A1) (B2) (A1) (A1) (A1) (A1) (B2) (A1)
                 (B2) (B1) (B2) (A1) (B2) (B1) (A2) (A1) (B2) (B2)
                 (A1) (B1) (A2) (A1) (B2) (B1) (B1) (A2) (A1) (B2)
                 (A1) (A1) (B2) (A1) (A2) (A1) (B2) (B2) (B2) (A1)
                 (A1) (A1) (B2) (B2) (B2) (A1) (B2) (B1) (B2) (A1)
                 (A1) (B1) (A1) (B2) (B1) (A2) (B2) (A1) (B1) (B1)
                 (B2) (A2) (A2) (B1) (B2) (A1) (A1) (B2) (A1) (A1)
                 (A1) (A2) (B2) (A1) (B2) (B1) (A1) (A2) (B2) (A1)
                 (B1) (A1) (B2) (A2) (B1) (B2) (B2) (A1) (A2) (B1)
                 (A1) (A1) (B2) (A2) (B2) (B2) (A1) (A1) (A1) (A2)
                 (B2) (A1) (B2) (B1) (B1) (B2) (A2) (B2) (B1) (A2)
                 (A1) (B1) (A2) (A1) (B2) (B1) (A2) (A1) (A2) (B2)
                 (A1) (A1) (A1) (A1) (B2) (A1) (B2) (B1) (B2) (A1)
                 (B2) (B2) (B2) (A1) (A1) (B2) (A1) (B2) (A1) (B2)
                 (B2) (B1) (B2) (A1) (A1) (B2) (A1) (B2) (A1) (A1)
                 (B2) (B2) (A1) (A1)
 The electronic state is 1-A1.
 Alpha  occ. eigenvalues --  -19.12629 -10.26614 -10.20687 -10.20663 -10.20109
 Alpha  occ. eigenvalues --  -10.20077 -10.19683 -10.19682 -10.17989 -10.17987
 Alpha  occ. eigenvalues --   -1.05645  -0.89422  -0.83081  -0.78707  -0.71706
 Alpha  occ. eigenvalues --   -0.69949  -0.60672  -0.59258  -0.55765  -0.52453
 Alpha  occ. eigenvalues --   -0.49544  -0.47862  -0.45817  -0.42982  -0.42765
 Alpha  occ. eigenvalues --   -0.42738  -0.41661  -0.39465  -0.38320  -0.35195
 Alpha  occ. eigenvalues --   -0.30875  -0.30482  -0.26362  -0.21347
 Alpha virt. eigenvalues --   -0.12891  -0.01398   0.01131   0.03820   0.06055
 Alpha virt. eigenvalues --    0.07264   0.08072   0.09358   0.10061   0.12004
 Alpha virt. eigenvalues --    0.14066   0.18296   0.18854   0.21868   0.22268
 Alpha virt. eigenvalues --    0.27446   0.27861   0.29728   0.33228   0.35058
 Alpha virt. eigenvalues --    0.35144   0.36190   0.37580   0.38498   0.40203
 Alpha virt. eigenvalues --    0.40782   0.41128   0.41913   0.42394   0.43364
 Alpha virt. eigenvalues --    0.43898   0.46567   0.46983   0.48379   0.52219
 Alpha virt. eigenvalues --    0.52583   0.55524   0.55549   0.55744   0.58214
 Alpha virt. eigenvalues --    0.59437   0.60237   0.61767   0.62964   0.63979
 Alpha virt. eigenvalues --    0.64947   0.65889   0.70095   0.72289   0.73880
 Alpha virt. eigenvalues --    0.74580   0.78047   0.79417   0.79812   0.81990
 Alpha virt. eigenvalues --    0.83436   0.87193   0.87533   0.88611   0.93695
 Alpha virt. eigenvalues --    0.95972   0.97238   0.99416   1.02152   1.03397
 Alpha virt. eigenvalues --    1.06151   1.08044   1.09426   1.13602   1.15049
 Alpha virt. eigenvalues --    1.15276   1.15651   1.19815   1.24900   1.25243
 Alpha virt. eigenvalues --    1.27425   1.36626   1.41023   1.44091   1.49622
 Alpha virt. eigenvalues --    1.52822   1.53602   1.55237   1.56379   1.59284
 Alpha virt. eigenvalues --    1.63425   1.65599   1.68935   1.69867   1.71547
 Alpha virt. eigenvalues --    1.77168   1.80523   1.81898   1.82685   1.88317
 Alpha virt. eigenvalues --    1.89222   1.93454   1.93545   1.93614   1.98829
 Alpha virt. eigenvalues --    2.06373   2.07944   2.11626   2.17401   2.18531
 Alpha virt. eigenvalues --    2.21597   2.21627   2.23604   2.31053   2.31068
 Alpha virt. eigenvalues --    2.33610   2.37243   2.42762   2.48884   2.54409
 Alpha virt. eigenvalues --    2.54713   2.61746   2.64203   2.69750   2.72413
 Alpha virt. eigenvalues --    2.76688   2.83125   2.86218   2.87399   2.90422
 Alpha virt. eigenvalues --    2.91303   2.94729   2.96027   2.99974   3.01677
 Alpha virt. eigenvalues --    3.09103   3.13456   3.17945   3.23346   3.28035
 Alpha virt. eigenvalues --    3.29771   3.31954   3.32254   3.38388   3.40831
 Alpha virt. eigenvalues --    3.41659   3.50502   3.55212   3.55343   3.60412
 Alpha virt. eigenvalues --    3.78082   3.87885   3.93752   4.15364   4.51211
 Alpha virt. eigenvalues --    4.68449   4.87574   5.03888   5.59912  23.18101
 Alpha virt. eigenvalues --   23.56008  23.60720  23.70092  23.82886  24.11777
 Alpha virt. eigenvalues --   24.13131  24.14621  24.18263  49.97103
          Condensed to atoms (all electrons):
               1          2          3          4          5          6
     1  C    4.977998   0.407399  -0.056590  -0.033313  -0.043812   0.603691
     2  C    0.407399   5.046632   0.363903  -0.056590  -0.028292  -0.030225
     3  C   -0.056590   0.363903   5.046632   0.407399  -0.030225  -0.028292
     4  C   -0.033313  -0.056590   0.407399   4.977998   0.603691  -0.043812
     5  C   -0.043812  -0.028292  -0.030225   0.603691   4.975304   0.402699
     6  C    0.603691  -0.030225  -0.028292  -0.043812   0.402699   4.975304
     7  H    0.393636  -0.043115   0.005792  -0.000638   0.006112  -0.040656
     8  H   -0.000638   0.005792  -0.043115   0.393636  -0.040656   0.006112
     9  H    0.006003  -0.000432   0.006882  -0.039498   0.397023  -0.046074
    10  H   -0.039498   0.006882  -0.000432   0.006003  -0.046074   0.397023
    11  C    0.002438  -0.036557  -0.036557   0.002438  -0.000353  -0.000353
    12  O   -0.000083   0.010200   0.010200  -0.000083   0.000000   0.000000
    13  C   -0.060461   0.350393   0.005391   0.019640  -0.000833   0.004793
    14  H   -0.000273  -0.038013   0.002380  -0.000459   0.000083  -0.000084
    15  C    0.019640   0.005391   0.350393  -0.060461   0.004793  -0.000833
    16  H   -0.000459   0.002380  -0.038013  -0.000273  -0.000084   0.000083
               7          8          9         10         11         12
     1  C    0.393636  -0.000638   0.006003  -0.039498   0.002438  -0.000083
     2  C   -0.043115   0.005792  -0.000432   0.006882  -0.036557   0.010200
     3  C    0.005792  -0.043115   0.006882  -0.000432  -0.036557   0.010200
     4  C   -0.000638   0.393636  -0.039498   0.006003   0.002438  -0.000083
     5  C    0.006112  -0.040656   0.397023  -0.046074  -0.000353   0.000000
     6  C   -0.040656   0.006112  -0.046074   0.397023  -0.000353   0.000000
     7  H    0.483589   0.000081  -0.000312  -0.007788  -0.000035   0.000008
     8  H    0.000081   0.483589  -0.007788  -0.000312  -0.000035   0.000008
     9  H   -0.000312  -0.007788   0.484164  -0.005147   0.000009   0.000000
    10  H   -0.007788  -0.000312  -0.005147   0.484164   0.000009   0.000000
    11  C   -0.000035  -0.000035   0.000009   0.000009   4.535970   0.672739
    12  O    0.000008   0.000008   0.000000   0.000000   0.672739   7.732555
    13  C   -0.003536  -0.000318  -0.000011  -0.000238   0.327320  -0.080815
    14  H    0.002117   0.000011   0.000001  -0.000024  -0.032829   0.003559
    15  C   -0.000318  -0.003536  -0.000238  -0.000011   0.327320  -0.080815
    16  H    0.000011   0.002117  -0.000024   0.000001  -0.032829   0.003559
              13         14         15         16
     1  C   -0.060461  -0.000273   0.019640  -0.000459
     2  C    0.350393  -0.038013   0.005391   0.002380
     3  C    0.005391   0.002380   0.350393  -0.038013
[...]
 ! D13   D(1,2,13,11)         -180.0            -DE/DX =    0.0                 !
 ! D14   D(1,2,13,14)            0.0            -DE/DX =    0.0                 !
 ! D15   D(3,2,13,11)            0.0            -DE/DX =    0.0                 !
 ! D16   D(3,2,13,14)          180.0            -DE/DX =    0.0                 !
 ! D17   D(2,3,4,5)              0.0            -DE/DX =    0.0                 !
 ! D18   D(2,3,4,8)            180.0            -DE/DX =    0.0                 !
 ! D19   D(15,3,4,5)          -180.0            -DE/DX =    0.0                 !
 ! D20   D(15,3,4,8)             0.0            -DE/DX =    0.0                 !
 ! D21   D(2,3,15,11)            0.0            -DE/DX =    0.0                 !
 ! D22   D(2,3,15,16)          180.0            -DE/DX =    0.0                 !
 ! D23   D(4,3,15,11)         -180.0            -DE/DX =    0.0                 !
 ! D24   D(4,3,15,16)            0.0            -DE/DX =    0.0                 !
 ! D25   D(3,4,5,6)              0.0            -DE/DX =    0.0                 !
 ! D26   D(3,4,5,9)            180.0            -DE/DX =    0.0                 !
 ! D27   D(8,4,5,6)            180.0            -DE/DX =    0.0                 !
 ! D28   D(8,4,5,9)              0.0            -DE/DX =    0.0                 !
 ! D29   D(4,5,6,1)              0.0            -DE/DX =    0.0                 !
 ! D30   D(4,5,6,10)           180.0            -DE/DX =    0.0                 !
 ! D31   D(9,5,6,1)            180.0            -DE/DX =    0.0                 !
 ! D32   D(9,5,6,10)             0.0            -DE/DX =    0.0                 !
 ! D33   D(12,11,13,2)         180.0            -DE/DX =    0.0                 !
 ! D34   D(12,11,13,14)          0.0            -DE/DX =    0.0                 !
 ! D35   D(15,11,13,2)           0.0            -DE/DX =    0.0                 !
 ! D36   D(15,11,13,14)        180.0            -DE/DX =    0.0                 !
 ! D37   D(12,11,15,3)         180.0            -DE/DX =    0.0                 !
 ! D38   D(12,11,15,16)          0.0            -DE/DX =    0.0                 !
 ! D39   D(13,11,15,3)           0.0            -DE/DX =    0.0                 !
 ! D40   D(13,11,15,16)        180.0            -DE/DX =    0.0                 !
 --------------------------------------------------------------------------------
 GradGradGradGradGradGradGradGradGradGradGradGradGradGradGradGradGradGrad

 1\1\GINC-STALINUX5\Freq\RB3LYP\6-311G(d)\C9H6O1\STANGER\21-Aug-2014\0\
 \#N Geom=AllCheck Guess=TCheck SCRF=Check GenChk RB3LYP/6-311G(d) Freq
 \\indene-2-one, b3lyp/6-311g* opt-cont freq\\0,1\C,-3.3245558391,-0.44
 72305958,-0.0000149379\C,-1.879625171,-0.4702576967,0.001008137\C,-1.1
 337776932,0.847938431,-0.0001920074\C,-1.897643644,2.074665886,-0.0023
 109847\C,-3.2478246339,2.0137475398,-0.0031598604\C,-3.9676687812,0.74
 15091856,-0.002001558\H,-3.8736737042,-1.3830991959,0.0008236502\H,-1.
 378211759,3.0273310478,-0.0031918016\H,-3.8326475529,2.9279458103,-0.0
 047496911\H,-5.0524949613,0.77201155,-0.0027868326\C,0.385264426,-0.88
 16488443,0.0030994196\O,1.4382422271,-1.4774319929,0.0045972991\C,-0.9
 944520273,-1.4876651421,0.002938514\H,-1.1801998472,-2.5524366825,0.00
 41943495\C,0.1941968511,0.6131294512,0.0010258572\H,1.0112563785,1.320
 699846,0.0006680737\\Version=EM64L-G09RevD.01\State=1-A1\HF=-421.82188
 75\RMSD=1.572e-09\RMSF=1.127e-07\ZeroPoint=0.1202764\Thermal=0.1275587
 \Dipole=-1.3527806,0.7654139,-0.0019244\DipoleDeriv=0.0439282,0.065736
 2,0.0000255,0.0457135,-0.0003376,-0.0001208,0.0000515,-0.000107,-0.117
 4563,0.2484321,-0.1954465,0.0004037,0.0622278,-0.0693009,0.0001725,0.0
 000689,-0.0000046,0.0305597,0.0737762,-0.042703,0.0000852,-0.3003773,0
 .1053546,-0.0003036,0.00042,-0.0001265,0.0305601,-0.0377967,-0.0033857
 ,0.0000592,0.016637,0.0813871,-0.0002469,0.0000331,-0.0002607,-0.11745
 61,-0.1550167,-0.0564592,0.000054,-0.0441268,0.3406773,-0.0006378,0.00
 0038,-0.0006463,-0.1268585,0.2536155,0.2013738,-0.0000001,0.1890414,-0
 .0679539,0.0000534,0.0000159,0.0000619,-0.1268595,-0.0008197,-0.040356
 7,-0.0000407,-0.0919898,-0.0506361,0.0001775,0.0000264,0.000213,0.1346
 574,0.0209999,-0.0788809,0.0000244,-0.0272478,-0.0724557,0.0002504,-0.
 0000427,0.0002149,0.1346574,0.0118938,0.0826582,-0.0001954,0.082217,-0
 .0793399,0.0003414,-0.0001948,0.0003417,0.1399497,-0.1279276,-0.001785
 7,-0.0001818,-0.0013446,0.0604812,0.0001023,-0.0001824,0.000102,0.1399
 5,1.0433643,-0.5661645,0.0012579,-0.5661645,0.3630749,-0.0004925,0.001
 2579,-0.0004925,0.2835702,-0.9856307,0.4207928,-0.0010074,0.4207929,-0
 .4800161,0.0005031,-0.0010074,0.0005031,-0.3154215,-0.2986113,0.326136
 1,-0.0004821,-0.1026838,0.0041789,-0.0003537,0.0000751,-0.000059,-0.21
 37243,0.0661125,-0.0332604,-0.0000274,-0.0213381,-0.0315568,0.0002457,
 -0.0000429,0.0002375,0.168798,-0.1747684,-0.0282807,0.0000635,0.400539
 2,-0.1196637,0.0001531,-0.0004937,-0.0001417,-0.2137246,0.0184487,-0.0
 499738,-0.0000384,-0.0618961,0.0161068,0.0001559,-0.0000229,0.0001641,
 0.1687981\Polar=141.7602474,-22.927112,114.2114278,0.1003021,-0.113259
 1,39.1735574\PG=C02V [C2(C1O1),SGV(C8H6)]\NImag=0\\0.61891467,-0.01831
 323,0.79865450,0.00036406,-0.00088938,0.12386310,-0.24995910,-0.021906
 16,-0.00009678,0.73239277,-0.02264780,-0.10190596,0.00002882,-0.140673
 55,0.59721729,-0.00009582,0.00002933,-0.06774446,0.00058513,-0.0006816
 5,0.14702533,-0.01662243,-0.02870093,0.00002227,-0.11362798,-0.0237052
 2,-0.00000441,0.75726915,-0.00675190,0.00446049,-0.00000363,-0.0364375
 9,-0.14976083,0.00008846,-0.12572816,0.57234096,-0.00000625,-0.0000187
 2,0.00523948,0.00001214,0.00009721,-0.06240354,0.00058281,-0.00063905,
 0.14702528,-0.00571668,0.01175923,-0.00001930,0.01451956,-0.00999125,0
 .00001936,-0.12150385,0.05526798,-0.00010876,0.76715440,-0.00239546,-0
 .00009105,-0.00000135,0.01195778,-0.02668143,0.00004970,0.05452635,-0.
 23036092,0.00024877,0.07074715,0.65041511,-0.00000091,0.00000838,0.000
 13443,-0.00000916,0.00003461,0.00523941,-0.00010780,0.00024928,-0.0677
 4475,0.00035023,-0.00063555,0.12386276,0.02724516,-0.00813049,0.000024
 06,-0.00854611,0.00130028,-0.00000073,-0.04830407,0.02840497,-0.000075
 07,-0.45963284,-0.02921945,-0.00023998,0.77631879,-0.00328764,-0.04751
 924,0.00006936,-0.00513235,0.00404441,-0.00002170,0.02879397,0.0117937
 4,0.00001385,0.00038728,-0.12295545,0.00008823,-0.06178526,0.61891020,
 0.00001777,0.00006604,0.00760369,0.00000763,-0.00001728,-0.00993963,-0
 .00007558,0.00001358,0.00722146,-0.00027845,0.00006788,-0.05525501,0.0
 0052601,-0.00068054,0.12783606,-0.19952000,0.15665948,-0.00030271,-0.0
 2939558,0.04015393,-0.00007734,0.00239688,0.00144205,0.00000661,-0.022
 65007,-0.03326400,0.00002243,-0.14368482,-0.06837294,0.00003194,0.7152
 0843,0.12705275,-0.38306770,0.00051327,0.03976493,-0.00711470,0.000045
 96,0.00787468,-0.00689856,0.00000146,-0.03810685,0.00237587,-0.0000194
 0,-0.02988635,-0.20271746,0.00016372,-0.09849952,0.68002042,-0.0002642
 4,0.00053362,-0.05525560,-0.00007684,0.00004623,0.00722142,-0.00000175
 ,-0.00000296,-0.00993966,0.00002872,-0.00001607,0.00760380,-0.00001807
 ,0.00013727,-0.06090357,0.00053171,-0.00078518,0.12783620,-0.13108772,
 -0.12290971,0.00009361,-0.01131855,-0.02883451,0.00002794,-0.00393501,
 0.00305043,-0.00000883,-0.00020394,0.00034889,-0.00000045,-0.00113617,
 0.00247207,-0.00001083,0.01202333,0.01502289,-0.00001475,0.13419405,-0
 .12069941,-0.26412759,0.00021485,0.00138065,0.00442092,-0.00000149,0.0
 0127792,0.00096034,0.00000372,0.00001934,0.00023396,-0.00000057,0.0043
 8689,-0.00184099,0.00001833,-0.01621313,-0.01991283,0.00002133,0.13089
 424,0.27943607,0.00009074,0.00021333,-0.03492877,-0.00001132,-0.000022
 26,0.00254416,-0.00000653,0.00000494,0.00314679,-0.00000002,-0.0000003
 4,-0.00021472,-0.00001332,0.00001702,0.00994711,0.00002584,0.00004280,
 0.00508260,-0.00009400,-0.00024256,0.02351677,-0.00004473,0.00011499,-
 0.00000003,-0.00224874,0.00229101,-0.00000669,0.01236603,0.01561002,-0
 .00001353,-0.12130265,-0.11482067,0.00008982,-0.01091744,-0.02999563,0
 .00002798,-0.00468196,0.00225662,-0.00001299,0.00016019,-0.00012377,0.
 00000154,0.12534971,0.00044454,0.00007476,-0.00000007,0.00406352,-0.00
 072593,0.00000783,-0.01460514,-0.01926361,0.00001830,-0.11703098,-0.27
 391263,0.00023008,0.00124039,0.00302789,0.00000352,0.00034181,0.001704
 79,0.00001094,-0.00017154,-0.00001724,-0.00000250,0.12558068,0.2882803
 9,-0.00000046,-0.00000030,-0.00021472,-0.00000899,0.00000661,0.0031467
 9,0.00002573,0.00003907,0.00254410,0.00009270,0.00023160,-0.03492879,-
 0.00001261,-0.00001795,0.00508265,-0.00001050,0.00001226,0.00994712,0.
 00000161,-0.00000247,-0.00185213,-0.00009318,-0.00025770,0.02351679,-0
 .00176574,-0.00275996,0.00000141,-0.00038400,-0.00028301,0.00000028,-0
 .00551359,-0.00232423,-0.00000906,-0.01307792,0.02931500,-0.00005110,-
 0.13859165,0.12465121,-0.00023145,0.01142419,-0.01533163,0.00002572,0.
 00037040,-0.00076940,0.00000120,0.00089146,-0.00029357,0.00000533,0.14
 605114,-0.00413488,-0.00287533,0.00000271,-0.00080836,0.00042787,-0.00
 000145,-0.00122322,0.00116502,0.00001333,-0.00233060,0.00522246,-0.000
 00079,0.12588149,-0.25659240,0.00037121,0.01633211,-0.01815874,0.00003
 871,0.00074988,-0.00102014,0.00000194,0.00029760,0.00099380,-0.0000092
 8,-0.13462018,0.26994684,0.00000320,0.00000366,0.00140025,0.00000096,-
 0.00000109,-0.00025904,-0.00001049,0.00001257,0.01206770,-0.00000998,0
 .00002096,0.00584879,-0.00023305,0.00037036,-0.03749573,-0.00001543,0.
 00001694,0.00299242,-0.00000077,0.00000089,0.00007491,0.00000456,-0.00
 000969,-0.00630590,0.00025864,-0.00041178,0.02424338,-0.01154333,-0.00
 140864,-0.00001012,0.00095974,0.00266587,-0.00001110,0.00069434,-0.000
 16052,0.00000086,0.00046267,-0.00279608,0.00000299,-0.01075456,0.00300
 743,-0.00001336,-0.33589441,0.00734472,-0.00021464,0.00096489,0.000341
 72,0.00000455,-0.00064273,0.00014120,-0.00000068,0.00073638,-0.0004818
 4,0.00000165,0.35594394,0.03023696,0.00368787,0.00002359,0.00156486,-0
 .00530830,0.00002365,0.00036484,-0.00065046,0.00000076,-0.00142117,-0.
 00510373,0.00000747,-0.02865632,0.00401996,-0.00002103,0.00611443,-0.0
 5929009,0.00003252,-0.00024945,0.00092037,-0.00000956,-0.00137808,-0.0
 0000702,-0.00000084,0.00062507,0.00082243,-0.00000162,-0.00851948,0.06
 005453,-0.00005124,0.00000184,0.00584879,-0.00000967,0.00002441,0.0120
 6768,0.00000018,0.00000040,-0.00025904,0.00000120,0.00000653,0.0014002
 4,0.00002779,0.00000073,0.00299247,-0.00021305,0.00003337,-0.03749528,
 0.00000532,-0.00000915,-0.00630590,0.00000130,0.00000020,0.00007491,0.
 00000021,-0.00000238,-0.00075805,0.00023906,-0.00005239,0.02424290,0.0
 0750667,-0.00708279,0.00000539,-0.05609322,0.03292979,-0.00007965,-0.0
 2479274,0.04222528,-0.00007021,-0.00668445,-0.00253370,-0.00001027,-0.
 00191486,0.00729458,-0.00001152,0.00480359,0.00485051,-0.00000373,0.00
 002073,-0.00006523,0.00000067,-0.00003549,0.00024836,0.00000022,-0.000
 42331,-0.00052257,0.00000171,-0.00005044,-0.00022778,0.00000158,0.8086
 9484,0.00599213,-0.01246187,0.00003726,0.02342038,0.02035945,-0.000013
 56,0.05173470,-0.01094097,0.00004657,-0.01560862,0.00172923,0.00000398
 ,0.00081416,0.01210018,-0.00001379,0.01133093,0.00538176,0.00000217,0.
 00028213,0.00007453,-0.00000097,-0.00009901,0.00013075,-0.00000131,-0.
 00045179,-0.00050124,-0.00000215,-0.00029856,-0.00087411,-0.00000156,-
 0.26778054,0.48693571,-0.00001159,0.00002828,0.01304780,-0.00006729,-0
 .00000702,-0.00246398,-0.00008257,0.00004004,-0.00246405,0.00000672,0.
 00001297,0.01304783,-0.00000310,-0.00000933,0.00105732,-0.00001215,-0.
 00000229,0.00105731,0.00000021,-0.00000121,-0.00082352,0.00000067,-0.0
 0000107,-0.00082352,0.00000162,-0.00000220,-0.00191907,0.00000167,-0.0
 0000151,-0.00191907,0.00077390,-0.00057121,0.18897588,-0.00230133,0.00
 516434,-0.00000616,-0.00204733,-0.01308402,0.00001336,0.00700090,-0.00
 138667,0.00000438,-0.00132794,0.00072863,0.00000027,0.00023411,-0.0020
 0088,0.00000294,-0.00179633,-0.00065953,-0.00000020,-0.00013468,-0.000
 18228,0.00000007,0.00003616,0.00018584,-0.00000030,-0.00019464,0.00026
 698,-0.00000082,-0.00031166,0.00036697,-0.00000103,-0.56274769,0.27097
 652,-0.00069832,0.64284183,0.00014384,0.00221247,-0.00000680,-0.006822
 72,-0.00169290,0.00000173,-0.00764797,-0.01074111,0.00001292,0.0057491
 3,0.00123909,-0.00000169,0.00056033,-0.00339467,0.00000446,-0.00322074
 ,-0.00136423,-0.00000078,0.00008319,0.00003830,0.00000016,-0.00007964,
 -0.00013255,0.00000027,0.00043727,0.00006921,0.00000085,0.00019668,0.0
 0018623,0.00000053,0.27097652,-0.23714862,0.00041769,-0.32188015,0.256
 07811,0.00000036,-0.00000335,-0.00310028,0.00000523,-0.00000257,0.0032
 4734,0.00001252,0.00001722,0.00324732,-0.00000625,-0.00000514,-0.00310
 029,-0.00000039,0.00000270,-0.00025782,0.00000313,0.00000098,-0.000257
 81,-0.00000028,-0.00000003,0.00011444,0.00000005,0.00000045,0.00011444
 ,-0.00000104,0.00000073,0.00049041,-0.00000081,0.00000065,0.00049041,-
 0.00069832,0.00041769,-0.05902797,0.00084380,-0.00052320,0.02368438,-0
 .03610061,0.04044305,-0.00008486,-0.24806384,0.17049870,-0.00035489,0.
 00983893,-0.00309617,0.00000677,0.00142442,-0.00374522,0.00000759,0.00
 158591,-0.00436541,0.00000617,-0.00704442,-0.01377384,0.00001166,0.001
 42503,-0.00013417,0.00000197,0.00066595,-0.00105750,0.00000182,0.00018
 660,0.00056028,-0.00000084,-0.00043374,0.00125752,-0.00000110,-0.08840
 598,-0.01803217,0.00001333,-0.06808753,0.00020671,-0.00005985,0.500962
 94,0.01984225,0.00279017,0.00002418,0.16390876,-0.30832429,0.00044305,
 -0.00808843,-0.05449239,0.00007283,-0.00007478,-0.00314201,0.00000074,
 -0.00586089,-0.00814334,0.00000767,-0.00650636,0.01474009,-0.00002098,
 0.00014527,0.00062740,-0.00000225,0.00090379,-0.00094778,0.00000187,0.
 00006038,0.00012225,0.00000034,-0.00045504,0.00111378,-0.00000334,-0.0
 4056736,-0.13208140,0.00004795,0.02567882,0.02402348,0.00001059,-0.079
 94229,0.84818547,-0.00005809,0.00003834,0.01090275,-0.00034633,0.00044
 758,-0.05404964,0.00001326,0.00007626,0.00583952,0.00000282,-0.0000017
 9,-0.00253515,0.00000811,0.00000870,0.00086059,0.00000221,-0.00002597,
 0.00203624,0.00000161,-0.00000245,-0.00118474,-0.00000073,0.00000052,0
 .00001360,-0.00000019,0.00000068,0.00034979,0.00000113,-0.00000216,-0.
 00121270,0.00004261,0.00006344,-0.07371627,-0.00009294,-0.00000692,0.0
 1859154,0.00038449,-0.00103659,0.09269820,0.00136145,-0.00029688,0.000
 00462,0.01026651,0.02057954,-0.00002219,-0.00397032,0.00220634,-0.0000
 1033,0.00105547,0.00090515,-0.00000082,0.00025776,-0.00021072,0.000000
 86,-0.00022949,-0.00048703,0.00000061,-0.00043258,-0.00041267,0.000000
 02,-0.00018661,0.00033272,-0.00000094,-0.00001875,-0.00000810,-0.00000
 004,0.00001202,-0.00000499,-0.00000028,0.00659193,-0.02389706,0.000035
 69,0.00074702,0.00392350,-0.00000361,-0.06607078,-0.05146398,0.0000378
 5,0.05458246,-0.00093215,0.00097631,-0.00000814,-0.00796340,-0.0115452
 3,0.00001426,0.00231558,-0.00124063,0.00001215,-0.00084759,-0.00051199
 ,0.00000078,0.00012254,-0.00002452,-0.00000065,-0.00003791,-0.00033379
 ,0.00000016,0.00067567,-0.00001679,0.00000090,0.00023017,-0.00021781,0
 .00000115,0.00005306,0.00002229,0.00000007,0.00005718,-0.00002699,0.00
 000064,0.00498114,-0.00263877,0.00000665,-0.00160613,0.00101659,-0.000
 00426,-0.05097131,-0.34310647,0.00037978,0.05385367,0.35840620,0.00000
 544,-0.00000771,-0.00479688,0.00001490,0.00003388,0.00364080,-0.000010
 47,0.00001208,0.00688774,0.00000146,0.00000198,0.00053558,0.00000043,-
 0.00000088,-0.00059237,0.00000002,-0.00000015,-0.00019341,-0.00000140,
 0.00000015,0.00032026,-0.00000080,0.00000123,0.00054913,-0.00000011,0.
 00000003,0.00004814,-0.00000036,0.00000060,0.00043471,-0.00000183,-0.0
 0001320,-0.00015622,0.00000357,-0.00000046,-0.00141377,0.00003721,0.00
 037944,-0.02385765,-0.00004508,-0.00040482,0.01836456,-0.00024459,-0.0
 0107749,0.00000297,-0.03249335,-0.03352107,0.00001721,-0.43996645,0.04
 861632,-0.00032843,-0.03413719,0.02102185,-0.00005827,0.01791518,0.008
 48902,-0.00000012,-0.00104861,-0.00744367,0.00000836,-0.00045194,0.000
 23218,-0.00000062,0.00083404,-0.00020978,0.00000166,0.00034910,0.00001
 529,0.00000105,-0.00013467,-0.00013264,-0.00000016,-0.09462936,-0.0443
 0629,0.00004319,-0.01183299,0.05947577,-0.00009819,-0.00183078,-0.0202
 6726,0.00000668,-0.00459423,-0.00004175,-0.00000207,0.82667850,-0.0047
 4794,-0.00147301,-0.00000464,-0.02852882,-0.01216021,0.00000378,0.0552
 0626,-0.11642212,0.00011899,0.04162265,0.00082676,0.00004170,0.0012215
 4,-0.01021945,0.00001676,-0.00594819,-0.00550883,0.00000419,-0.0017291
 1,0.00017010,-0.00000139,-0.00048922,0.00121838,-0.00000346,0.00172785
 ,0.00033094,-0.00000082,0.00036727,0.00044352,0.00000013,-0.02177109,-
 0.12585803,0.00005279,0.03400365,-0.03223092,0.00008941,-0.03700445,-0
 .03623876,0.00005643,-0.00357259,-0.00058409,-0.00000365,0.11574313,0.
 52247065,0.00000774,-0.00000212,-0.00253514,0.00001072,0.00000035,0.00
 583961,-0.00033699,0.00011446,-0.05404920,-0.00008504,0.00002754,0.010
 90274,0.00000933,0.00002176,0.00203618,0.00000642,0.00000316,0.0008606
 0,0.00000193,-0.00000004,0.00001360,0.00000202,-0.00000327,-0.00118474
 ,-0.00000117,-0.00000200,-0.00121270,-0.00000081,-0.00000021,0.0003497
 9,0.00001391,0.00003730,-0.07371626,-0.00006509,0.00010692,0.01859141,
 0.00002842,0.00006794,0.02676919,0.00000252,-0.00000123,-0.00150525,0.
 00035410,-0.00047887,0.09269746,-0.00012169,-0.00155482,0.00000157,-0.
 00396080,0.00232130,-0.00001047,-0.01132980,-0.02093817,0.00001692,0.0
 0162101,-0.00077620,0.00000542,-0.00007439,0.00005527,0.,0.00008927,0.
 00002132,0.00000044,-0.00045802,0.00006711,-0.00000078,-0.00024317,0.0
 0078946,-0.00000141,-0.00003968,0.00002612,-0.00000036,-0.00000844,0.0
 0005925,-0.00000012,0.00815977,0.00592308,-0.00000198,-0.00007790,-0.0
 0210173,0.00000365,-0.00005210,0.00268710,-0.00000249,0.00062813,0.000
 11122,-0.00000091,-0.22441266,-0.14610092,0.00005199,0.23028046,0.0001
 9793,0.00066516,-0.00000003,0.00221206,-0.00125015,0.00001209,0.007604
 77,0.01005104,-0.00000310,-0.00014094,0.00071674,-0.00000726,-0.000393
 85,-0.00048888,0.00000011,-0.00031195,0.00014397,-0.00000117,0.0001696
 6,0.00005360,0.00000076,-0.00029888,-0.00020621,0.00000048,-0.00003606
 ,0.00002472,0.00000051,-0.00000190,0.00001198,0.00000005,-0.02295513,-
 0.00420661,-0.00001052,0.00342790,0.00184151,-0.00000187,-0.00084374,-
 0.00512621,0.00000412,-0.00144689,-0.00017432,0.00000149,-0.14659359,-
 0.18476495,0.00010832,0.15941060,0.18270860,-0.00000071,-0.00000124,0.
 00053558,-0.00001033,0.00001217,0.00688774,-0.00002017,-0.00002272,0.0
 0364085,0.00000459,-0.00000770,-0.00479688,0.00000059,0.00000042,-0.00
 019341,0.00000087,-0.00000094,-0.00059237,-0.00000091,0.00000069,0.000
 54913,0.,0.00000123,0.00032026,-0.00000028,0.00000055,0.00043471,-0.00
 000004,0.00000009,0.00004814,0.00003554,0.00000933,-0.00015622,-0.0000
 0354,-0.00000567,-0.00141377,0.00000210,0.00000655,-0.00150526,0.00000
 112,0.00000256,0.00173462,0.00005263,0.00010865,-0.02385729,-0.0000614
 7,-0.00010397,0.01836415\\0.00000038,-0.00000003,0.,-0.00000030,0.0000
 0015,0.,-0.00000028,0.00000018,0.,0.00000022,-0.00000031,0.,-0.0000001
 3,-0.00000011,0.,0.00000003,0.00000016,0.,0.,0.00000001,0.,-0.00000001
 ,0.,0.,0.00000002,-0.00000003,0.,0.00000004,0.,0.,0.00000005,-0.000000
 03,0.,-0.00000004,0.00000002,0.,0.00000010,0.00000006,0.,-0.00000002,0
 .00000005,0.,0.,-0.00000011,0.,-0.00000005,0.,0.\\\@


 KINETICS       FACT
 ---------  =  -------
 MECHANISM     FICTION
 Job cpu time:       0 days  0 hours 14 minutes  3.9 seconds.
 File lengths (MBytes):  RWF=     49 Int=      0 D2E=      0 Chk=      4 Scr=      1
 Normal termination of Gaussian 09 at Thu Aug 21 15:09:21 2014.
