 Entering Gaussian System, Link 0=/usr/local/g09/g09
 Input=/home/anuja/input/indene-sigma-guessonly.in
 Output=/home/anuja/output/indene-sigma-guessonly.log
 Initial command:
 /usr/local/g09-D.01/g09/l1.exe /gtmp/Gau-6096.inp -scrdir=/gtmp/
 Entering Link 1 = /usr/local/g09-D.01/g09/l1.exe PID=      6098.
  
 Copyright (c) 1988,1990,1992,1993,1995,1998,2003,2009,2013,
            Gaussian, Inc.  All Rights Reserved.
  
 This is part of the Gaussian(R) 09 program.  It is based on
 the Gaussian(R) 03 system (copyright 2003, Gaussian, Inc.),
 the Gaussian(R) 98 system (copyright 1998, Gaussian, Inc.),
 the Gaussian(R) 94 system (copyright 1995, Gaussian, Inc.),
 the Gaussian 92(TM) system (copyright 1992, Gaussian, Inc.),
 the Gaussian 90(TM) system (copyright 1990, Gaussian, Inc.),
 the Gaussian 88(TM) system (copyright 1988, Gaussian, Inc.),
 the Gaussian 86(TM) system (copyright 1986, Carnegie Mellon
 University), and the Gaussian 82(TM) system (copyright 1983,
 Carnegie Mellon University). Gaussian is a federally registered
 trademark of Gaussian, Inc.
  
 This software contains proprietary and confidential information,
 including trade secrets, belonging to Gaussian, Inc.
  
 This software is provided under written license and may be
 used, copied, transmitted, or stored only in accord with that
 written license.
  
 The following legend is applicable only to US Government
 contracts under FAR:
  
                    RESTRICTED RIGHTS LEGEND
  
 Use, reproduction and disclosure by the US Government is
 subject to restrictions as set forth in subparagraphs (a)
 and (c) of the Commercial Computer Software - Restricted
 Rights clause in FAR 52.227-19.
  
 Gaussian, Inc.
 340 Quinnipiac St., Bldg. 40, Wallingford CT 06492
  
  
 ---------------------------------------------------------------
 Warning -- This program may not be used in any manner that
 competes with the business of Gaussian, Inc. or will provide
 assistance to any competitor of Gaussian, Inc.  The licensee
 of this program is prohibited from giving any competitor of
 Gaussian, Inc. access to this program.  By using this program,
 the user acknowledges that Gaussian, Inc. is engaged in the
 business of creating and licensing software in the field of
 computational chemistry and represents and warrants to the
 licensee that it is not a competitor of Gaussian, Inc. and that
 it will not use this program in any manner prohibited above.
 ---------------------------------------------------------------
  

 Cite this work as:
 Gaussian 09, Revision D.01,
 M. J. Frisch, G. W. Trucks, H. B. Schlegel, G. E. Scuseria, 
 M. A. Robb, J. R. Cheeseman, G. Scalmani, V. Barone, B. Mennucci, 
 G. A. Petersson, H. Nakatsuji, M. Caricato, X. Li, H. P. Hratchian, 
 A. F. Izmaylov, J. Bloino, G. Zheng, J. L. Sonnenberg, M. Hada, 
 M. Ehara, K. Toyota, R. Fukuda, J. Hasegawa, M. Ishida, T. Nakajima, 
 Y. Honda, O. Kitao, H. Nakai, T. Vreven, J. A. Montgomery, Jr., 
 J. E. Peralta, F. Ogliaro, M. Bearpark, J. J. Heyd, E. Brothers, 
 K. N. Kudin, V. N. Staroverov, T. Keith, R. Kobayashi, J. Normand, 
 K. Raghavachari, A. Rendell, J. C. Burant, S. S. Iyengar, J. Tomasi, 
 M. Cossi, N. Rega, J. M. Millam, M. Klene, J. E. Knox, J. B. Cross, 
 V. Bakken, C. Adamo, J. Jaramillo, R. Gomperts, R. E. Stratmann, 
 O. Yazyev, A. J. Austin, R. Cammi, C. Pomelli, J. W. Ochterski, 
 R. L. Martin, K. Morokuma, V. G. Zakrzewski, G. A. Voth, 
 P. Salvador, J. J. Dannenberg, S. Dapprich, A. D. Daniels, 
 O. Farkas, J. B. Foresman, J. V. Ortiz, J. Cioslowski, 
 and D. J. Fox, Gaussian, Inc., Wallingford CT, 2013.
 
 ******************************************
 Gaussian 09:  EM64L-G09RevD.01 24-Apr-2013
                11-Nov-2014 
 ******************************************
 ------------
 # guess=only
 ------------
 1/38=1/1;
 2/12=2,17=6,18=5,40=1/2;
 3/11=9,16=1,25=1,30=1,89=1/1,2;
 4//1;
 6/7=3,28=1/1;
 99/5=2/99;
 ----------------------------------------------------------
 ----------------------------------------- sigma only model
 ----------------------------------------------------------
 Symbolic Z-matrix:
 Charge =  0 Multiplicity = 1
 6
 6                    1     1.44511 
 6                    2     1.51457  1     118.58855 
 6                    3     1.44511  2     118.58855  1     0.       0
 6                    4     1.35156  3     119.32653  2     0.       0
 6                    5     1.46177  4     122.08492  3     0.       0
 1                    6     1.08526  5     117.89095  4     180.     0
 1                    5     1.08526  4     120.02414  3     180.     0
 1                    4     1.08507  3     119.48916  2     180.     0
 6                    3     1.34858  2     109.47428  1     180.     0
 6                    10    1.50694  3     107.31151  2     0.       0
 8                    11    1.20984  10    126.78579  3     180.     0
 6                    11    1.50694  10    106.42843  3     0.       0
 1                    13    1.08085  11    123.60822  10    180.     0
 1                    10    1.08085  3     129.08027  2     180.     0
 1                    1     1.08507  2     119.48916  3     180.     0
 0                    1     1.44938  2     59.77987  3     0.       0
 0                    1     1.76088  2     65.52566  3     38.60598  0
 0                    1     2.64445  2     4.63204  3     0.       0
 0                    1     2.82721  2     21.20351  3     77.94523  0
 0                    1     1.92592  2     20.19806  3     0.       0
 0                    1     2.17006  2     33.60023  3     56.37782  0
 1                    2     1.       21    95.      22    0.       0
 1                    3     1.       21    95.      22    0.       0
 1                    1     1.       17    95.      18    0.       0
 1                    4     1.       17    95.      18    0.       0
 1                    5     1.       17    95.      18    0.       0
 1                    6     1.       17    95.      18    0.       0
 1                    10    1.       19    95.      20    0.       0
 1                    11    1.       19    95.      20    0.       0
 1                    13    1.       19    95.      20    0.       0
 1                    12    0.96     19    95.      20    0.       0
 
                          Input orientation:                          
 ---------------------------------------------------------------------
 Center     Atomic      Atomic             Coordinates (Angstroms)
 Number     Number       Type             X           Y           Z
 ---------------------------------------------------------------------
      1          6           0        0.000000    0.000000    0.000000
      2          6           0        0.000000    0.000000    1.445114
      3          6           0        1.329913    0.000000    2.169862
      4          6           0        2.544315    0.000000    1.386546
      5          6           0        2.461890    0.000000    0.037507
      6          6           0        1.178343    0.000000   -0.661973
      7          1           0        1.191557    0.000000   -1.747148
      8          1           0        3.366656    0.000000   -0.561810
      9          1           0        3.505136    0.000000    1.890731
     10          6           0        1.116293    0.000000    3.501411
     11          6           0       -0.375252    0.000000    3.716272
     12          8           0       -0.954182    0.000000    4.778610
     13          6           0       -1.003176    0.000000    2.346388
     14          1           0       -2.070772    0.000000    2.177630
     15          1           0        1.836793    0.000000    4.307091
     16          1           0       -0.944499    0.000000   -0.534136
     17          0           0        1.252410    0.000000    0.729509
     18          0           0        1.252410   -1.000000    0.729509
     19          0           0        0.213556    0.000000    2.635809
     20          0           0        0.213556   -1.000000    2.635809
     21          0           0        0.664957    0.000000    1.807488
     22          0           0        0.664957   -1.000000    1.807488
     23          1           0       -0.076530   -0.996195    1.403409
     24          1           0        1.406443   -0.996195    2.211567
     25          1           0       -0.075311   -0.996195   -0.043868
     26          1           0        2.622001   -0.996195    1.426056
     27          1           0        2.537539   -0.996195   -0.005775
     28          1           0        1.173711   -0.996195   -0.749006
     29          1           0        1.179202   -0.996195    3.561732
     30          1           0       -0.416957   -0.996195    3.792802
     31          1           0       -1.087966   -0.996195    2.326219
     32          1           0       -0.994219   -0.956347    4.852079
 ---------------------------------------------------------------------
                    Distance matrix (angstroms):
                    1          2          3          4          5
     1  C    0.000000
     2  C    1.445114   0.000000
     3  C    2.544989   1.514572   0.000000
     4  C    2.897594   2.544989   1.445114   0.000000
     5  C    2.462176   2.835888   2.414189   1.351555   0.000000
     6  C    1.351555   2.414189   2.835888   2.462176   1.461768
     7  H    2.114789   3.407396   3.919453   3.413210   2.190603
     8  H    3.413210   3.919453   3.407396   2.114789   1.085256
     9  H    3.982568   3.533349   2.193059   1.085071   2.126688
    10  C    3.675049   2.339758   1.348575   2.551842   3.716081
    11  C    3.735170   2.301949   2.301949   3.735170   4.645717
    12  O    4.872944   3.467370   3.467370   4.872944   5.843596
    13  C    2.551842   1.348575   2.339758   3.675049   4.163846
    14  H    3.005024   2.196515   3.400694   4.682398   5.012500
    15  H    4.682398   3.400694   2.196515   3.005024   4.315101
    16  H    1.085071   2.193059   3.533349   3.982568   3.454021
    17  Bq   1.449385   1.442436   1.442436   1.449385   1.393452
    18  Bq   1.760885   1.755170   1.755170   1.760885   1.715141
    19  Bq   2.644447   1.209694   1.209694   2.644447   3.436013
    20  Bq   2.827207   1.569510   1.569510   2.827207   3.578573
    21  Bq   1.925923   0.757286   0.757286   1.925923   2.522262
    22  Bq   2.170065   1.254385   1.254385   2.170065   2.713265
    23  H    1.722735   1.000000   1.886249   2.803839   3.049864
    24  H    2.803839   1.886249   1.000000   1.722735   2.613984
    25  H    1.000000   1.793082   2.804935   3.146574   2.726980
    26  H    3.146574   2.804935   1.793082   1.000000   1.716423
    27  H    2.726086   3.088137   2.680329   1.712019   1.000000
    28  H    1.712019   2.680329   3.088137   2.726086   1.808428
    29  H    3.881862   2.619731   1.718260   2.754518   3.880445
    30  H    3.943552   2.584162   2.584162   3.943552   4.835536
    31  H    2.754518   1.718260   2.619731   3.881862   4.339595
    32  H    5.044377   3.675660   3.675660   5.044377   6.003282
                    6          7          8          9         10
     6  C    0.000000
     7  H    1.085256   0.000000
     8  H    2.190603   2.477112   0.000000
     9  H    3.454021   4.311243   2.456447   0.000000
    10  C    4.163846   5.249099   4.644770   2.881121   0.000000
    11  C    4.645717   5.683648   5.683648   4.288358   1.506941
    12  O    5.843596   6.869477   6.869477   5.312755   2.432716
    13  C    3.716081   4.644770   5.249099   4.531280   2.413758
    14  H    4.315101   5.103594   6.088526   5.583285   3.451055
    15  H    5.012500   6.088526   5.103594   2.936353   1.080852
    16  H    2.126688   2.456447   4.311243   5.067468   4.531280
    17  Bq   1.393452   2.477405   2.477405   2.534405   2.775241
    18  Bq   1.715141   2.671617   2.671617   2.724557   2.949909
    19  Bq   3.436013   4.490747   4.490747   3.374855   1.250680
    20  Bq   3.578573   4.600740   4.600740   3.519893   1.601312
    21  Bq   2.522262   3.593431   3.593431   2.841399   1.753020
    22  Bq   2.713265   3.729980   3.729980   3.012233   2.018187
    23  H    2.613984   3.539274   4.087788   3.749429   2.610908
    24  H    3.049864   4.087788   3.539274   2.345177   1.655381
    25  H    1.716423   2.344893   3.620470   4.189830   3.870571
    26  H    2.726980   3.620470   2.344893   1.410055   2.750756
    27  H    1.808428   2.415875   1.410323   2.350614   3.913144
    28  H    1.000000   1.410323   2.415875   3.660076   4.365975
    29  H    4.339595   5.401552   4.772939   3.032263   1.000000
    30  H    4.835536   5.854124   5.854124   4.471364   1.851532
    31  H    3.880445   4.772939   5.401552   4.720025   2.689282
    32  H    6.003282   7.017265   7.017265   5.470683   2.682008
                   11         12         13         14         15
    11  C    0.000000
    12  O    1.209844   0.000000
    13  C    1.506941   2.432716   0.000000
    14  H    2.289587   2.830525   1.080852   0.000000
    15  H    2.289587   2.830525   3.451055   4.450132   0.000000
    16  H    4.288358   5.312755   2.881121   2.936353   5.583285
    17  Bq   3.401475   4.611319   2.775241   3.624996   3.624996
    18  Bq   3.545424   4.718503   2.949909   3.760398   3.760398
    19  Bq   1.230485   2.440329   1.250680   2.329825   2.329825
    20  Bq   1.585589   2.637273   1.601312   2.535367   2.535367
    21  Bq   2.173819   3.383663   1.753020   2.760655   2.760655
    22  Bq   2.392799   3.528339   2.018187   2.936191   2.936191
    23  H    2.535937   3.626935   1.655381   2.359836   3.617262
    24  H    2.535937   3.626935   2.610908   3.617262   2.359836
    25  H    3.901412   5.002110   2.750756   3.147907   4.855862
    26  H    3.901412   5.002110   3.870571   4.855862   3.147907
    27  H    4.830155   6.006236   4.365975   5.195787   4.481548
    28  H    4.830155   6.006236   3.913144   4.481548   5.195787
    29  H    1.852731   2.650382   2.689282   3.670215   1.407264
    30  H    1.000000   1.500944   1.851532   2.517198   2.517198
    31  H    1.852731   2.650382   1.000000   1.407264   3.670215
    32  H    1.608657   0.960000   2.682008   3.037473   3.037473
                   16         17         18         19         20
    16  H    0.000000
    17  Bq   2.534405   0.000000
    18  Bq   2.724557   1.000000   0.000000
    19  Bq   3.374855   2.170990   2.390230   0.000000
    20  Bq   3.519893   2.390230   2.170990   1.000000   0.000000
    21  Bq   2.841399   1.227656   1.583395   0.943334   1.374729
    22  Bq   3.012233   1.583395   1.227656   1.374729   0.943334
    23  H    2.345177   1.792380   1.490046   1.611013   1.266086
    24  H    3.749429   1.792380   1.490046   1.611013   1.266086
    25  H    1.410055   1.831218   1.536545   2.873415   2.695204
    26  H    4.189830   1.831218   1.536545   2.873415   2.695204
    27  H    3.660076   1.784546   1.480613   3.656675   3.518364
    28  H    2.350614   1.784546   1.480613   3.656675   3.518364
    29  H    4.720025   3.003206   2.833171   1.667995   1.337841
    30  H    4.471364   3.628078   3.488633   1.651842   1.317646
    31  H    3.032263   3.003206   2.833171   1.667995   1.337841
    32  H    5.470683   4.791401   4.695192   2.699105   2.524376
                   21         22         23         24         25
    21  Bq   0.000000
    22  Bq   1.000000   0.000000
    23  H    1.305942   0.844450   0.000000
    24  H    1.305942   0.844450   1.688883   0.000000
    25  H    2.228883   1.993873   1.447277   2.698626   0.000000
    26  H    2.228883   1.993873   2.698626   1.447277   3.071835
    27  H    2.790501   2.606627   2.969707   2.489174   2.613128
    28  H    2.790501   2.606627   2.489174   2.969707   1.434320
    29  H    2.081880   1.828068   2.497042   1.369154   3.817610
    30  H    2.470711   2.260978   2.413522   2.413522   3.851851
    31  H    2.081880   1.828068   1.369154   2.497042   2.577359
    32  H    3.596803   3.467607   3.568902   3.568902   4.981593
                   26         27         28         29         30
    26  H    0.000000
    27  H    1.434320   0.000000
    28  H    2.613128   1.553197   0.000000
    29  H    2.577359   3.817353   4.310741   0.000000
    30  H    3.851851   4.812301   4.812301   1.612798   0.000000
    31  H    3.817610   4.310741   3.817353   2.581965   1.612798
    32  H    4.981593   6.006134   6.006134   2.527913   1.207016
                   31         32
    31  H    0.000000
    32  H    2.527913   0.000000
 Symmetry turned off:
 Cannot cope with ghost atoms or with translation vectors.
 Stoichiometry    C9H16O
 Framework group  C1[X(C9H16O)]
 NUMDOF-- NAT=    26 NAtoms=    32
 Deg. of freedom     0
 Full point group                 C1      NOp   1
 Rotational constants (GHZ):      3.2005121      0.9494068      0.7522784
 Standard basis: STO-3G (5D, 7F)
 Warning:  center  17 has no basis functions!
 Warning:  center  18 has no basis functions!
 Warning:  center  19 has no basis functions!
 Warning:  center  20 has no basis functions!
 Warning:  center  21 has no basis functions!
 Warning:  center  22 has no basis functions!
    66 basis functions,   198 primitive gaussians,    66 cartesian basis functions
    39 alpha electrons       39 beta electrons
       nuclear repulsion energy       612.4367264269 Hartrees.
 NAtoms=   32 NActive=   32 NUniq=   32 SFac= 1.00D+00 NAtFMM=   60 NAOKFM=F Big=F
 Integral buffers will be    131072 words long.
 Raffenetti 1 integral format.
 Two-electron integral symmetry is turned off.
 One-electron integrals computed using PRISM.
 NBasis=    66 RedAO= T EigKep=  1.23D-01  NBF=    66
 NBsUse=    66 1.00D-06 EigRej= -1.00D+00 NBFU=    66
 ExpMin= 1.69D-01 ExpMax= 1.31D+02 ExpMxC= 1.31D+02 IAcc=1 IRadAn=         1 AccDes= 0.00D+00
 Harris functional with IExCor=  205 and IRadAn=       1 diagonalized for initial guess.
 HarFok:  IExCor=  205 AccDes= 0.00D+00 IRadAn=         1 IDoV= 1 UseB2=F ITyADJ=14
 ICtDFT=  3500011 ScaDFX=  1.000000  1.000000  1.000000  1.000000
 FoFCou: FMM=F IPFlag=           0 FMFlag=      100000 FMFlg1=           0
         NFxFlg=           0 DoJE=T BraDBF=F KetDBF=T FulRan=T
         wScrn=  0.000000 ICntrl=     500 IOpCl=  0 I1Cent=   200000004 NGrid=           0
         NMat0=    1 NMatS0=      1 NMatT0=    0 NMatD0=    1 NMtDS0=    0 NMtDT0=    0
 Symmetry not used in FoFCou.

 **********************************************************************

            Population analysis using the SCF density.

 **********************************************************************

 Alpha  occ. eigenvalues --  -18.49427  -9.85665  -9.85650  -9.85487  -9.85336
 Alpha  occ. eigenvalues --   -9.85128  -9.85126  -9.84887  -9.84714  -9.83785
 Alpha  occ. eigenvalues --   -1.18669  -1.06395  -1.00161  -0.97655  -0.90869
 Alpha  occ. eigenvalues --   -0.86626  -0.76962  -0.76003  -0.71366  -0.67933
 Alpha  occ. eigenvalues --   -0.66050  -0.65064  -0.64698  -0.61112  -0.58708
 Alpha  occ. eigenvalues --   -0.58274  -0.57828  -0.54636  -0.54395  -0.53763
 Alpha  occ. eigenvalues --   -0.53179  -0.50599  -0.47533  -0.44880  -0.37977
 Alpha  occ. eigenvalues --   -0.37661  -0.35444  -0.30748  -0.28897
 Alpha virt. eigenvalues --   -0.02829   0.01749   0.03280   0.06347   0.06978
 Alpha virt. eigenvalues --    0.09948   0.10015   0.14367   0.15046   0.15164
 Alpha virt. eigenvalues --    0.15468   0.16157   0.20700   0.24857   0.27644
 Alpha virt. eigenvalues --    0.29565   0.31935   0.33819   0.36226   0.39954
 Alpha virt. eigenvalues --    0.41594   0.45940   0.51443   0.56412   0.59658
 Alpha virt. eigenvalues --    0.64924   0.70110
     Molecular Orbital Coefficients:
                           1         2         3         4         5
                           O         O         O         O         O
     Eigenvalues --   -18.49427  -9.85665  -9.85650  -9.85487  -9.85336
   1 1   C  1S          0.00000  -0.65411   0.68287   0.23226   0.13392
   2        2S         -0.00005  -0.04651   0.04648   0.00579  -0.00053
   3        2PX         0.00001  -0.00362   0.00253  -0.00488  -0.00504
   4        2PY         0.00000   0.00547  -0.00571  -0.00179  -0.00090
   5        2PZ        -0.00003   0.00074  -0.00061   0.00290   0.00332
   6 2   C  1S          0.00001   0.06346  -0.05502  -0.02984  -0.02612
   7        2S          0.00010   0.01280  -0.01069  -0.00472  -0.00282
   8        2PX        -0.00011   0.00058   0.00054  -0.00003   0.00009
   9        2PY        -0.00002  -0.00061   0.00057   0.00034   0.00029
  10        2PZ        -0.00012  -0.00522   0.00586   0.00157   0.00125
  11 3   C  1S          0.00001  -0.06351  -0.05496   0.02984  -0.02612
  12        2S          0.00010  -0.01281  -0.01068   0.00472  -0.00282
  13        2PX         0.00016  -0.00408  -0.00521   0.00130  -0.00110
  14        2PY        -0.00002   0.00061   0.00057  -0.00034   0.00029
  15        2PZ         0.00003   0.00332   0.00272  -0.00088   0.00060
  16 4   C  1S          0.00000   0.65481   0.68221  -0.23221   0.13391
  17        2S         -0.00005   0.04656   0.04643  -0.00579  -0.00053
  18        2PX         0.00002  -0.00134  -0.00086  -0.00020  -0.00006
  19        2PY         0.00000  -0.00548  -0.00570   0.00179  -0.00090
  20        2PZ        -0.00002  -0.00345  -0.00246  -0.00567   0.00604
  21 5   C  1S          0.00000  -0.23284  -0.13442  -0.65746   0.68568
  22        2S          0.00000  -0.02719  -0.01657  -0.04623   0.03440
  23        2PX         0.00000   0.00153  -0.00146   0.00482   0.00493
  24        2PY         0.00000   0.00212   0.00129   0.00556  -0.00544
  25        2PZ         0.00000  -0.00581  -0.00704   0.00300   0.00285
  26 6   C  1S          0.00000   0.23272  -0.13470   0.65750   0.68563
  27        2S          0.00000   0.02717  -0.01660   0.04623   0.03439
  28        2PX         0.00000  -0.00405   0.00671   0.00513  -0.00507
  29        2PY         0.00000  -0.00211   0.00130  -0.00556  -0.00544
  30        2PZ         0.00000   0.00443  -0.00259   0.00243  -0.00260
  31 7   H  1S          0.00000  -0.00310   0.00172  -0.00779  -0.00787
  32 8   H  1S          0.00000   0.00310   0.00172   0.00779  -0.00787
  33 9   H  1S          0.00001  -0.00773  -0.00805   0.00243  -0.00139
  34 10  C  1S         -0.00004   0.00893   0.00616  -0.00421   0.00137
  35        2S          0.00032   0.00161   0.00116  -0.00075   0.00032
  36        2PX        -0.00010   0.00040   0.00048  -0.00010   0.00005
  37        2PY         0.00006  -0.00002   0.00001   0.00002   0.00000
  38        2PZ         0.00078  -0.00063  -0.00039   0.00029  -0.00012
  39 11  C  1S          0.00080   0.00000  -0.00073   0.00000  -0.00017
  40        2S         -0.01113   0.00000  -0.00019   0.00000  -0.00007
  41        2PX         0.00438  -0.00010  -0.00007   0.00006  -0.00001
  42        2PY         0.00079   0.00000   0.00000   0.00000   0.00000
  43        2PZ        -0.00804  -0.00005   0.00013   0.00003   0.00002
  44 12  O  1S          0.99176   0.00000   0.00000   0.00000   0.00000
  45        2S          0.03900   0.00000   0.00000   0.00000   0.00001
  46        2PX         0.00294   0.00001   0.00000  -0.00001   0.00000
  47        2PY        -0.00358   0.00000   0.00000   0.00000   0.00000
  48        2PZ        -0.00540   0.00001   0.00000   0.00000   0.00000
  49 13  C  1S         -0.00004  -0.00892   0.00617   0.00421   0.00137
  50        2S          0.00032  -0.00161   0.00116   0.00075   0.00032
  51        2PX        -0.00060  -0.00032   0.00007   0.00019   0.00007
  52        2PY         0.00006   0.00002   0.00001  -0.00002   0.00000
  53        2PZ         0.00051   0.00068  -0.00061  -0.00024  -0.00011
  54 14  H  1S         -0.00021   0.00020  -0.00018  -0.00009  -0.00004
  55 15  H  1S         -0.00021  -0.00020  -0.00018   0.00009  -0.00004
  56 16  H  1S          0.00001   0.00772  -0.00806  -0.00244  -0.00139
  57 17  H  1S         -0.00007  -0.00138   0.00133   0.00071   0.00060
  58 18  H  1S         -0.00007   0.00138   0.00132  -0.00071   0.00060
  59 19  H  1S          0.00001   0.01007  -0.01043  -0.00293  -0.00132
  60 20  H  1S          0.00001  -0.01008  -0.01042   0.00293  -0.00132
  61 21  H  1S          0.00000   0.00423   0.00260   0.01025  -0.00947
  62 22  H  1S          0.00000  -0.00422   0.00260  -0.01025  -0.00947
  63 23  H  1S          0.00000  -0.00004  -0.00001   0.00007  -0.00005
  64 24  H  1S          0.00305   0.00000  -0.00004   0.00000  -0.00001
  65 25  H  1S          0.00000   0.00004  -0.00001  -0.00007  -0.00005
  66 26  H  1S         -0.00877   0.00000   0.00001   0.00000   0.00000
                           6         7         8         9        10
                           O         O         O         O         O
     Eigenvalues --    -9.85128  -9.85126  -9.84887  -9.84714  -9.83785
   1 1   C  1S         -0.01495   0.02430   0.06764   0.05880   0.00100
   2        2S          0.00029  -0.00045  -0.00368  -0.00400  -0.00010
   3        2PX        -0.00036   0.00023   0.00005   0.00041   0.00006
   4        2PY         0.00017  -0.00024  -0.00048  -0.00037  -0.00001
   5        2PZ         0.00082  -0.00134  -0.00552  -0.00542  -0.00016
   6 2   C  1S         -0.09785   0.14161   0.67914   0.68927   0.01213
   7        2S         -0.01481   0.02019   0.04831   0.03517  -0.00006
   8        2PX         0.00598  -0.00405   0.00425  -0.00557   0.00032
   9        2PY         0.00093  -0.00128  -0.00584  -0.00549  -0.00001
  10        2PZ        -0.00417   0.00501   0.00356  -0.00147  -0.00033
  11 3   C  1S         -0.09609  -0.14279  -0.67910   0.68931   0.01213
  12        2S         -0.01456  -0.02037  -0.04831   0.03518  -0.00006
  13        2PX         0.00024   0.00202   0.00530   0.00426   0.00011
  14        2PY         0.00091   0.00129   0.00584  -0.00549  -0.00001
  15        2PZ        -0.00720  -0.00620   0.00164   0.00389  -0.00045
  16 4   C  1S         -0.01464  -0.02448  -0.06764   0.05880   0.00100
  17        2S          0.00029   0.00045   0.00368  -0.00400  -0.00010
  18        2PX        -0.00048  -0.00100  -0.00461   0.00434   0.00011
  19        2PY         0.00016   0.00024   0.00048  -0.00037  -0.00001
  20        2PZ         0.00074   0.00093   0.00303  -0.00328  -0.00014
  21 5   C  1S         -0.00227  -0.00242  -0.00663   0.01504   0.00027
  22        2S          0.00007   0.00008   0.00015  -0.00004  -0.00003
  23        2PX         0.00006   0.00011   0.00035   0.00008   0.00001
  24        2PY         0.00000   0.00000  -0.00002  -0.00004   0.00000
  25        2PZ         0.00009   0.00019   0.00049  -0.00054  -0.00003
  26 6   C  1S         -0.00230   0.00240   0.00663   0.01504   0.00027
  27        2S          0.00007  -0.00008  -0.00015  -0.00004  -0.00003
  28        2PX        -0.00012   0.00022   0.00060   0.00041   0.00002
  29        2PY         0.00000   0.00000   0.00002  -0.00004   0.00000
  30        2PZ         0.00000  -0.00001   0.00003  -0.00036  -0.00002
  31 7   H  1S          0.00002  -0.00002  -0.00008  -0.00028  -0.00001
  32 8   H  1S          0.00002   0.00002   0.00008  -0.00028  -0.00001
  33 9   H  1S          0.00002   0.00012   0.00061  -0.00059  -0.00005
  34 10  C  1S          0.68414   0.68714  -0.14516   0.09752   0.06483
  35        2S          0.04587   0.04542   0.00090  -0.00302  -0.00633
  36        2PX        -0.00082   0.00010   0.00113  -0.00158   0.00752
  37        2PY        -0.00566  -0.00571   0.00112  -0.00067  -0.00028
  38        2PZ        -0.00319  -0.00377  -0.00576   0.00577  -0.00169
  39 11  C  1S         -0.08557  -0.00053   0.00000  -0.02919   0.98348
  40        2S         -0.01997  -0.00012   0.00000  -0.00364   0.05841
  41        2PX        -0.00291  -0.00781   0.00138  -0.00057  -0.00077
  42        2PY         0.00114   0.00001   0.00000   0.00042  -0.00844
  43        2PZ         0.00545  -0.00421   0.00075   0.00105   0.00141
  44 12  O  1S         -0.00013   0.00000   0.00000  -0.00001   0.00069
  45        2S          0.00148   0.00001   0.00000   0.00018  -0.01075
  46        2PX         0.00038   0.00071  -0.00007   0.00003  -0.00247
  47        2PY         0.00012   0.00000   0.00000   0.00000  -0.00056
  48        2PZ        -0.00071   0.00038  -0.00004  -0.00005   0.00452
  49 13  C  1S          0.69256  -0.67865   0.14518   0.09752   0.06483
  50        2S          0.04643  -0.04486  -0.00090  -0.00302  -0.00633
  51        2PX         0.00316  -0.00307  -0.00423  -0.00399  -0.00265
  52        2PY        -0.00573   0.00564  -0.00112  -0.00067  -0.00028
  53        2PZ        -0.00106   0.00211   0.00408   0.00446  -0.00724
  54 14  H  1S         -0.00793   0.00764  -0.00138  -0.00100  -0.00057
  55 15  H  1S         -0.00784  -0.00774   0.00138  -0.00100  -0.00057
  56 16  H  1S          0.00002  -0.00012  -0.00061  -0.00059  -0.00005
  57 17  H  1S          0.00197  -0.00258  -0.01086  -0.00991   0.00003
  58 18  H  1S          0.00194   0.00261   0.01085  -0.00991   0.00003
  59 19  H  1S          0.00024  -0.00035  -0.00016   0.00005  -0.00002
  60 20  H  1S          0.00023   0.00035   0.00016   0.00005  -0.00002
  61 21  H  1S         -0.00002  -0.00002   0.00000  -0.00005   0.00000
  62 22  H  1S         -0.00002   0.00002   0.00000  -0.00005   0.00000
  63 23  H  1S         -0.01034  -0.01043   0.00134  -0.00051  -0.00009
  64 24  H  1S          0.00257   0.00002   0.00000   0.00086  -0.01515
  65 25  H  1S         -0.01047   0.01030  -0.00134  -0.00051  -0.00009
  66 26  H  1S          0.00018   0.00000   0.00000  -0.00007  -0.00079
                          11        12        13        14        15
                           O         O         O         O         O
     Eigenvalues --    -1.18669  -1.06395  -1.00161  -0.97655  -0.90869
   1 1   C  1S         -0.00197  -0.07374  -0.07672   0.11643   0.07948
   2        2S          0.00489   0.17512   0.18237  -0.28838  -0.20238
   3        2PX         0.00047   0.03256   0.06728  -0.03086  -0.05997
   4        2PY        -0.00106  -0.04713  -0.05214   0.08446   0.06018
   5        2PZ         0.00223   0.02840  -0.04113  -0.01737   0.06781
   6 2   C  1S         -0.01059  -0.11936   0.04297   0.09208  -0.05796
   7        2S          0.02150   0.27185  -0.09945  -0.22274   0.14713
   8        2PX        -0.00287  -0.00041   0.03003   0.06993  -0.09474
   9        2PY        -0.00573  -0.07688   0.02919   0.07158  -0.04847
  10        2PZ         0.00893   0.03296  -0.09471   0.03593   0.08490
  11 3   C  1S         -0.01060  -0.11941   0.04314  -0.09199   0.05793
  12        2S          0.02151   0.27197  -0.09988   0.22253  -0.14708
  13        2PX        -0.00595  -0.02751   0.06325   0.06821   0.02003
  14        2PY        -0.00574  -0.07693   0.02933  -0.07154   0.04847
  15        2PZ         0.00726   0.01830  -0.07665   0.03922  -0.12560
  16 4   C  1S         -0.00197  -0.07373  -0.07654  -0.11654  -0.07949
  17        2S          0.00490   0.17510   0.18191   0.28865   0.20241
  18        2PX        -0.00213  -0.04150  -0.00182  -0.03129   0.02447
  19        2PY        -0.00106  -0.04713  -0.05200  -0.08454  -0.06019
  20        2PZ         0.00081  -0.01192  -0.07879  -0.01661  -0.08714
  21 5   C  1S         -0.00076  -0.05917  -0.12082  -0.06031  -0.07557
  22        2S          0.00163   0.13719   0.29287   0.14680   0.19341
  23        2PX        -0.00026  -0.02002  -0.03817   0.02794   0.04572
  24        2PY        -0.00039  -0.03655  -0.08109  -0.04301  -0.05745
  25        2PZ         0.00059   0.02939   0.03088   0.07781   0.08422
  26 6   C  1S         -0.00076  -0.05918  -0.12090   0.06012   0.07555
  27        2S          0.00163   0.13722   0.29309  -0.14632  -0.19337
  28        2PX        -0.00035  -0.01386  -0.00538   0.08054   0.09557
  29        2PY        -0.00039  -0.03656  -0.08116   0.04288   0.05743
  30        2PZ         0.00054   0.03277   0.04885  -0.01865  -0.00724
  31 7   H  1S          0.00010   0.01133   0.03027  -0.01660  -0.02900
  32 8   H  1S          0.00010   0.01132   0.03024   0.01666   0.02900
  33 9   H  1S          0.00029   0.01446   0.01822   0.03365   0.02810
  34 10  C  1S         -0.02309  -0.07676   0.07343  -0.07123   0.11632
  35        2S          0.05429   0.17607  -0.17373   0.17717  -0.30098
  36        2PX        -0.02505  -0.01315   0.02442   0.01518  -0.01339
  37        2PY        -0.01112  -0.04870   0.04889  -0.05226   0.09059
  38        2PZ        -0.00386  -0.07005   0.04921  -0.05570   0.05709
  39 11  C  1S         -0.12898  -0.02412   0.03677   0.00004  -0.00002
  40        2S          0.25932   0.05352  -0.08684  -0.00009   0.00004
  41        2PX        -0.06830   0.03712  -0.04047   0.03409  -0.07664
  42        2PY        -0.06783  -0.01519   0.02551   0.00003  -0.00001
  43        2PZ         0.12533  -0.06809   0.07419   0.01866  -0.04179
  44 12  O  1S         -0.20599   0.03836  -0.03490  -0.00003   0.00001
  45        2S          0.68174  -0.13124   0.12257   0.00012  -0.00005
  46        2PX         0.08717  -0.00933   0.00457   0.00550  -0.01584
  47        2PY        -0.10938   0.01956  -0.01695  -0.00002   0.00001
  48        2PZ        -0.15996   0.01712  -0.00840   0.00299  -0.00863
  49 13  C  1S         -0.02309  -0.07671   0.07330   0.07136  -0.11638
  50        2S          0.05429   0.17595  -0.17340  -0.17751   0.30114
  51        2PX         0.01681   0.06593  -0.05448  -0.03867   0.04072
  52        2PY        -0.01112  -0.04866   0.04879   0.05235  -0.09063
  53        2PZ         0.01897  -0.02690   0.00609   0.04295  -0.04221
  54 14  H  1S          0.00409   0.01571  -0.01785  -0.02101   0.04391
  55 15  H  1S          0.00409   0.01573  -0.01788   0.02098  -0.04389
  56 16  H  1S          0.00029   0.01446   0.01826  -0.03361  -0.02809
  57 17  H  1S          0.00352   0.06419  -0.02625  -0.07092   0.05137
  58 18  H  1S          0.00352   0.06421  -0.02636   0.07086  -0.05135
  59 19  H  1S          0.00053   0.03461   0.04466  -0.07468  -0.06015
  60 20  H  1S          0.00053   0.03460   0.04455   0.07476   0.06016
  61 21  H  1S          0.00021   0.02721   0.06936   0.03767   0.05729
  62 22  H  1S          0.00021   0.02722   0.06941  -0.03755  -0.05728
  63 23  H  1S          0.00424   0.03584  -0.04206   0.04545  -0.08994
  64 24  H  1S          0.05852   0.00969  -0.02134  -0.00002   0.00001
  65 25  H  1S          0.00424   0.03581  -0.04198  -0.04553   0.08998
  66 26  H  1S          0.08076  -0.02086   0.02186   0.00002  -0.00001
                          16        17        18        19        20
                           O         O         O         O         O
     Eigenvalues --    -0.86626  -0.76962  -0.76003  -0.71366  -0.67933
   1 1   C  1S          0.05665  -0.09679   0.03556  -0.00934  -0.03058
   2        2S         -0.15113   0.28101  -0.10892   0.02792   0.10350
   3        2PX         0.04500  -0.05401   0.10975   0.10523  -0.03221
   4        2PY         0.04551  -0.09145   0.03767   0.04574   0.04416
   5        2PZ        -0.09451  -0.07047  -0.17474   0.04145  -0.09141
   6 2   C  1S          0.07382   0.07049   0.06785  -0.02550  -0.01756
   7        2S         -0.20078  -0.20555  -0.19417   0.08053   0.05798
   8        2PX        -0.05693  -0.07335   0.01580   0.22108  -0.08389
   9        2PY         0.06567   0.04455   0.06413   0.06610   0.16880
  10        2PZ         0.09920  -0.12011   0.13808   0.01061   0.11677
  11 3   C  1S          0.07381   0.07036  -0.06797  -0.02554  -0.01757
  12        2S         -0.20074  -0.20517   0.19454   0.08065   0.05800
  13        2PX        -0.05255   0.14096   0.12442  -0.12876  -0.05267
  14        2PY         0.06566   0.04444  -0.06423   0.06604   0.16882
  15        2PZ         0.10164  -0.00359  -0.06148  -0.17998   0.13380
  16 4   C  1S          0.05667  -0.09685  -0.03538  -0.00935  -0.03057
  17        2S         -0.15117   0.28120   0.10838   0.02796   0.10347
  18        2PX         0.05501   0.08830  -0.08748  -0.09184   0.09424
  19        2PY         0.04553  -0.09150  -0.03752   0.04570   0.04419
  20        2PZ        -0.08906   0.00756   0.18698  -0.06590  -0.02251
  21 5   C  1S         -0.08864   0.05010   0.09009   0.00570  -0.00536
  22        2S          0.24060  -0.14954  -0.26418  -0.02215   0.01922
  23        2PX        -0.02827   0.08430  -0.10087  -0.06208   0.07642
  24        2PY        -0.07260   0.03923   0.07752   0.05486   0.03452
  25        2PZ        -0.07559   0.16307  -0.03397   0.08379   0.05766
  26 6   C  1S         -0.08865   0.04992  -0.09019   0.00568  -0.00535
  27        2S          0.24061  -0.14902   0.26448  -0.02209   0.01919
  28        2PX         0.07884  -0.18290  -0.08284  -0.03678  -0.08987
  29        2PY        -0.07260   0.03908  -0.07762   0.05486   0.03453
  30        2PZ        -0.01723   0.01742  -0.06645   0.09759  -0.03297
  31 7   H  1S          0.04518  -0.03934   0.07719  -0.03438   0.01755
  32 8   H  1S          0.04518  -0.03949  -0.07709  -0.03439   0.01755
  33 9   H  1S         -0.02539   0.08350   0.02576  -0.02887   0.05725
  34 10  C  1S         -0.06747  -0.02930   0.07934   0.05687  -0.04566
  35        2S          0.18073   0.09304  -0.23575  -0.17041   0.14471
  36        2PX        -0.07238  -0.03748   0.03512  -0.22271   0.00053
  37        2PY        -0.04919  -0.04168   0.07147   0.10809   0.14869
  38        2PZ         0.02760   0.10949  -0.08471  -0.01646  -0.09154
  39 11  C  1S         -0.08255  -0.07593   0.00009  -0.11175  -0.00816
  40        2S          0.22060   0.22186  -0.00026   0.33790   0.03611
  41        2PX         0.06186   0.03215  -0.13698   0.04218  -0.01021
  42        2PY        -0.07252  -0.09910   0.00011  -0.06799   0.30911
  43        2PZ        -0.11351  -0.05930  -0.07455  -0.07754   0.01875
  44 12  O  1S          0.05433   0.05514  -0.00006   0.05317  -0.05029
  45        2S         -0.20677  -0.22662   0.00024  -0.22363   0.22116
  46        2PX         0.01097   0.03128  -0.04866   0.06389   0.01961
  47        2PY         0.02157   0.01221  -0.00001   0.04944   0.26083
  48        2PZ        -0.02014  -0.05750  -0.02643  -0.11730  -0.03597
  49 13  C  1S         -0.06745  -0.02944  -0.07931   0.05683  -0.04566
  50        2S          0.18068   0.09346   0.23564  -0.17028   0.14471
  51        2PX         0.01602  -0.07173  -0.05207   0.13443   0.07657
  52        2PY        -0.04918  -0.04181  -0.07143   0.10803   0.14867
  53        2PZ         0.07579   0.09101   0.07518   0.17831  -0.05008
  54 14  H  1S          0.02780   0.03421   0.06504  -0.09191   0.02568
  55 15  H  1S          0.02781   0.03411  -0.06508  -0.09197   0.02566
  56 16  H  1S         -0.02537   0.08345  -0.02591  -0.02889   0.05727
  57 17  H  1S         -0.07305  -0.05854  -0.08452  -0.03970  -0.11206
  58 18  H  1S         -0.07305  -0.05838   0.08464  -0.03964  -0.11206
  59 19  H  1S         -0.04993   0.10956  -0.04476  -0.03093  -0.00776
  60 20  H  1S         -0.04995   0.10964   0.04456  -0.03089  -0.00778
  61 21  H  1S          0.07795  -0.05296  -0.09736  -0.04367  -0.01897
  62 22  H  1S          0.07796  -0.05278   0.09748  -0.04366  -0.01898
  63 23  H  1S          0.05576   0.04647  -0.08967  -0.11013  -0.07631
  64 24  H  1S          0.07749   0.10635  -0.00012   0.11100  -0.22238
  65 25  H  1S          0.05575   0.04661   0.08962  -0.11006  -0.07629
  66 26  H  1S         -0.04335  -0.04923   0.00005  -0.07866  -0.11153
                          21        22        23        24        25
                           O         O         O         O         O
     Eigenvalues --    -0.66050  -0.65064  -0.64698  -0.61112  -0.58708
   1 1   C  1S          0.00124   0.02972   0.06483   0.02237  -0.01117
   2        2S          0.00268  -0.09523  -0.21716  -0.09152   0.03648
   3        2PX        -0.10757  -0.09643   0.11641   0.25462   0.02970
   4        2PY        -0.11836  -0.12766   0.07014  -0.07371   0.14527
   5        2PZ        -0.16889   0.06596   0.01770  -0.14503  -0.15544
   6 2   C  1S          0.00203   0.00699  -0.06472   0.03322  -0.00068
   7        2S         -0.01173  -0.02338   0.20410  -0.11291   0.00770
   8        2PX        -0.00492   0.00772  -0.10611   0.08546   0.03864
   9        2PY        -0.06391  -0.14068  -0.06332  -0.12139  -0.13736
  10        2PZ         0.18987  -0.05913   0.11030   0.14088   0.05050
  11 3   C  1S          0.00195   0.00700   0.06470   0.03323  -0.00066
  12        2S         -0.01145  -0.02342  -0.20403  -0.11295   0.00762
  13        2PX        -0.15698   0.04552   0.03499  -0.16476  -0.06340
  14        2PY        -0.06398  -0.14065   0.06335  -0.12144  -0.13774
  15        2PZ         0.10716  -0.03859  -0.14885   0.00454  -0.00538
  16 4   C  1S          0.00131   0.02972  -0.06483   0.02234  -0.01110
  17        2S          0.00246  -0.09521   0.21718  -0.09145   0.03622
  18        2PX         0.20002  -0.00320   0.07819  -0.01603   0.11413
  19        2PY        -0.11824  -0.12764  -0.07023  -0.07378   0.14492
  20        2PZ        -0.00133   0.11677   0.08825  -0.29253  -0.10938
  21 5   C  1S          0.01930   0.02096   0.06617   0.01160  -0.04423
  22        2S         -0.05984  -0.06564  -0.22153  -0.05441   0.15628
  23        2PX         0.20749   0.02140  -0.10035  -0.02696   0.18884
  24        2PY        -0.10834  -0.13132   0.06830  -0.06241   0.25177
  25        2PZ        -0.00750  -0.14087   0.05379   0.29512   0.01081
  26 6   C  1S          0.01938   0.02096  -0.06615   0.01158  -0.04424
  27        2S         -0.06009  -0.06563   0.22148  -0.05431   0.15631
  28        2PX        -0.10613   0.10678  -0.00929  -0.23340  -0.11149
  29        2PY        -0.10828  -0.13133  -0.06840  -0.06242   0.25198
  30        2PZ        -0.17836  -0.09436  -0.11370   0.18260  -0.15296
  31 7   H  1S          0.04568   0.01399   0.10748  -0.10688   0.13863
  32 8   H  1S          0.04577   0.01399  -0.10742  -0.10692   0.13854
  33 9   H  1S          0.05970  -0.01422   0.10622  -0.10003   0.04225
  34 10  C  1S          0.04338   0.02222  -0.02482  -0.01461   0.03086
  35        2S         -0.15720  -0.06790   0.09175   0.04893  -0.10823
  36        2PX        -0.12746  -0.03557  -0.05685   0.00662   0.03562
  37        2PY         0.03132   0.00161  -0.02470  -0.08948  -0.12793
  38        2PZ        -0.16738   0.05621   0.26687   0.03968  -0.01460
  39 11  C  1S          0.01038  -0.07753  -0.00001   0.03325   0.00272
  40        2S         -0.03932   0.25216   0.00002  -0.11007  -0.01524
  41        2PX         0.05277  -0.07922   0.20380  -0.00622  -0.08676
  42        2PY        -0.06669   0.13027  -0.00006   0.13376  -0.03954
  43        2PZ        -0.09705   0.14540   0.11096   0.01147   0.15936
  44 12  O  1S         -0.00950   0.02169   0.00000  -0.04175   0.01294
  45        2S          0.04799  -0.10503   0.00000   0.18925  -0.06907
  46        2PX        -0.05553   0.15356   0.11428  -0.03402   0.09501
  47        2PY        -0.14068   0.34865  -0.00010   0.13589   0.12146
  48        2PZ         0.10178  -0.28176   0.06235   0.06247  -0.17423
  49 13  C  1S          0.04334   0.02223   0.02486  -0.01462   0.03079
  50        2S         -0.15707  -0.06793  -0.09193   0.04895  -0.10803
  51        2PX         0.20946  -0.02790   0.19377  -0.03699  -0.00697
  52        2PY         0.03127   0.00163   0.02480  -0.08944  -0.12764
  53        2PZ         0.01654   0.06034  -0.19241   0.01587  -0.03810
  54 14  H  1S         -0.12125  -0.01566  -0.09459   0.02897  -0.03755
  55 15  H  1S         -0.12139  -0.01563   0.09443   0.02893  -0.03762
  56 16  H  1S          0.05986  -0.01422  -0.10614  -0.10010   0.04256
  57 17  H  1S          0.03575   0.10055   0.08367   0.05816   0.09600
  58 18  H  1S          0.03583   0.10053  -0.08367   0.05818   0.09627
  59 19  H  1S          0.08760   0.07236  -0.09617   0.02219  -0.09192
  60 20  H  1S          0.08746   0.07234   0.09624   0.02226  -0.09175
  61 21  H  1S          0.06906   0.08233  -0.09441   0.01957  -0.13786
  62 22  H  1S          0.06897   0.08234   0.09448   0.01959  -0.13798
  63 23  H  1S         -0.06395  -0.01323   0.04793   0.07290   0.06704
  64 24  H  1S          0.04145  -0.05404   0.00005  -0.12610   0.01960
  65 25  H  1S         -0.06386  -0.01325  -0.04804   0.07289   0.06688
  66 26  H  1S          0.10071  -0.25714   0.00006  -0.03786  -0.11482
                          26        27        28        29        30
                           O         O         O         O         O
     Eigenvalues --    -0.58274  -0.57828  -0.54636  -0.54395  -0.53763
   1 1   C  1S          0.05028  -0.00820  -0.00065   0.01039  -0.01340
   2        2S         -0.17638   0.01176  -0.00375  -0.03887   0.05713
   3        2PX         0.05499   0.33759   0.02715   0.02312  -0.09318
   4        2PY        -0.26175   0.11829   0.04394   0.00671  -0.02917
   5        2PZ         0.05842   0.22507   0.03035   0.02558   0.02702
   6 2   C  1S          0.02798  -0.03335   0.02594  -0.02820   0.04038
   7        2S         -0.09369   0.11587  -0.08855   0.11512  -0.14343
   8        2PX         0.09856   0.08964   0.02642   0.31495   0.06898
   9        2PY        -0.22691   0.01519  -0.00421   0.06315  -0.12574
  10        2PZ        -0.02173  -0.17295  -0.11133  -0.05107  -0.08026
  11 3   C  1S         -0.02798   0.03336  -0.02590  -0.02826   0.04040
  12        2S          0.09367  -0.11590   0.08840   0.11529  -0.14350
  13        2PX         0.03509  -0.09678  -0.07907  -0.12780   0.02988
  14        2PY         0.22664  -0.01529   0.00416   0.06321  -0.12577
  15        2PZ         0.09464   0.16911   0.08286  -0.29232  -0.10136
  16 4   C  1S         -0.05029   0.00819   0.00063   0.01039  -0.01343
  17        2S          0.17642  -0.01175   0.00383  -0.03886   0.05722
  18        2PX         0.07908   0.37230   0.04026  -0.03405   0.02787
  19        2PY         0.26200  -0.11822  -0.04396   0.00671  -0.02922
  20        2PZ         0.01432   0.16172   0.00646  -0.00544   0.09266
  21 5   C  1S         -0.01308   0.02711   0.00875   0.02044  -0.01488
  22        2S          0.04332  -0.08562  -0.03179  -0.06579   0.05362
  23        2PX         0.03118   0.09065  -0.00680   0.32354  -0.10663
  24        2PY         0.14663  -0.04114  -0.01666  -0.07896   0.15593
  25        2PZ         0.06080  -0.14286  -0.00416  -0.03709  -0.14168
  26 6   C  1S          0.01300  -0.02713  -0.00877   0.02044  -0.01491
  27        2S         -0.04305   0.08571   0.03184  -0.06580   0.05374
  28        2PX         0.06780  -0.07096  -0.00694  -0.14426   0.17702
  29        2PY        -0.14619   0.04127   0.01673  -0.07893   0.15586
  30        2PZ        -0.00694   0.15336  -0.00312  -0.29185   0.01249
  31 7   H  1S         -0.01749  -0.04775   0.01397   0.14050   0.02282
  32 8   H  1S          0.01769   0.04792  -0.01414   0.14057   0.02260
  33 9   H  1S          0.11104   0.19786   0.01577  -0.03097   0.05860
  34 10  C  1S         -0.03390  -0.00263  -0.00174  -0.01798  -0.00211
  35        2S          0.11526   0.00052  -0.00675   0.07835   0.01295
  36        2PX         0.05901   0.05864  -0.35108   0.02437  -0.20699
  37        2PY         0.17128  -0.02426   0.10481   0.04065  -0.04653
  38        2PZ        -0.08391  -0.09998  -0.18696   0.26565   0.10701
  39 11  C  1S          0.00000   0.00000  -0.00001   0.01061  -0.01181
  40        2S         -0.00002  -0.00001   0.00002  -0.03265   0.05159
  41        2PX        -0.01311  -0.12172   0.35606   0.02909   0.15720
  42        2PY        -0.00003  -0.00001  -0.00006   0.03875   0.19552
  43        2PZ        -0.00697  -0.06628   0.19412  -0.05284  -0.28854
  44 12  O  1S          0.00001   0.00000   0.00001  -0.00438  -0.06991
  45        2S         -0.00004  -0.00001  -0.00007   0.02368   0.34358
  46        2PX        -0.01537  -0.08669   0.24370  -0.05866  -0.20212
  47        2PY         0.00011   0.00004   0.00001  -0.04568   0.15852
  48        2PZ        -0.00856  -0.04730   0.13266   0.10802   0.37083
  49 13  C  1S          0.03396   0.00265   0.00176  -0.01797  -0.00211
  50        2S         -0.11546  -0.00060   0.00666   0.07833   0.01294
  51        2PX        -0.03850  -0.05221  -0.34724  -0.23679   0.02212
  52        2PY        -0.17151   0.02417  -0.10485   0.04045  -0.04647
  53        2PZ         0.09500   0.10345  -0.19387   0.12327   0.23200
  54 14  H  1S         -0.03649   0.01576   0.20698   0.15468  -0.02584
  55 15  H  1S          0.03640  -0.01580  -0.20709   0.15449  -0.02590
  56 16  H  1S         -0.11099  -0.19776  -0.01570  -0.03098   0.05861
  57 17  H  1S          0.15814   0.01112  -0.00868  -0.02713   0.06411
  58 18  H  1S         -0.15795  -0.01107   0.00867  -0.02714   0.06411
  59 19  H  1S          0.14531  -0.10486  -0.03334  -0.01447   0.03892
  60 20  H  1S         -0.14547   0.10482   0.03338  -0.01447   0.03895
  61 21  H  1S         -0.09466   0.02101   0.00551   0.05801  -0.09873
  62 22  H  1S          0.09441  -0.02108  -0.00557   0.05798  -0.09863
  63 23  H  1S         -0.10038   0.01430  -0.09918   0.00595   0.03606
  64 24  H  1S          0.00001   0.00000   0.00004  -0.02694  -0.13332
  65 25  H  1S          0.10050  -0.01426   0.09917   0.00612   0.03602
  66 26  H  1S         -0.00010  -0.00003  -0.00004   0.05400   0.03196
                          31        32        33        34        35
                           O         O         O         O         O
     Eigenvalues --    -0.53179  -0.50599  -0.47533  -0.44880  -0.37977
   1 1   C  1S          0.02700   0.02021   0.00024  -0.02053  -0.01892
   2        2S         -0.09218  -0.07139  -0.01774   0.07423   0.07900
   3        2PX        -0.17661   0.09327   0.21084  -0.09505  -0.07256
   4        2PY        -0.01247  -0.22324   0.03248   0.20444   0.07206
   5        2PZ         0.23999  -0.00095   0.20332   0.03531   0.16717
   6 2   C  1S         -0.02427  -0.00300   0.00572  -0.01478   0.00331
   7        2S          0.09019   0.00299  -0.03145   0.05177  -0.03298
   8        2PX         0.01014  -0.08349  -0.27887   0.07878   0.02150
   9        2PY         0.05397   0.14269  -0.02780   0.15836   0.26544
  10        2PZ        -0.18606   0.11291  -0.24859  -0.05097  -0.07725
  11 3   C  1S          0.02423   0.00301   0.00573  -0.01478  -0.00331
  12        2S         -0.09000  -0.00302  -0.03146   0.05178   0.03298
  13        2PX        -0.15098   0.04960   0.36002   0.00014  -0.05333
  14        2PY        -0.05381  -0.14270  -0.02783   0.15833  -0.26531
  15        2PZ         0.10932  -0.13138   0.09964  -0.09382   0.05995
  16 4   C  1S         -0.02699  -0.02022   0.00024  -0.02052   0.01893
  17        2S          0.09215   0.07142  -0.01774   0.07421  -0.07901
  18        2PX         0.10595   0.04979  -0.28510   0.02186   0.10109
  19        2PY         0.01249   0.22322   0.03249   0.20445  -0.07230
  20        2PZ        -0.27851   0.07893  -0.06704   0.09899  -0.15163
  21 5   C  1S          0.01981  -0.02345  -0.00053   0.02180  -0.00821
  22        2S         -0.09660   0.08848   0.00522  -0.07617   0.01651
  23        2PX        -0.14602   0.12813   0.26764   0.00808   0.08735
  24        2PY         0.10765   0.18696  -0.01859  -0.20386   0.25443
  25        2PZ         0.29540  -0.08195   0.10033   0.03374   0.03886
  26 6   C  1S         -0.01978   0.02345  -0.00053   0.02180   0.00821
  27        2S          0.09651  -0.08847   0.00524  -0.07617  -0.01651
  28        2PX         0.16895   0.00067  -0.22934  -0.03271   0.08005
  29        2PY        -0.10784  -0.18692  -0.01862  -0.20389  -0.25431
  30        2PZ        -0.28291   0.15213  -0.17057   0.01150   0.05228
  31 7   H  1S          0.19895  -0.14190   0.12076  -0.05290  -0.06955
  32 8   H  1S         -0.19895   0.14189   0.12072  -0.05290   0.06961
  33 9   H  1S          0.01242   0.08941  -0.21408   0.09504  -0.02829
  34 10  C  1S          0.00023   0.04762  -0.00092   0.02555   0.01717
  35        2S         -0.00391  -0.16872   0.00360  -0.09008  -0.08772
  36        2PX        -0.01826  -0.11580  -0.07650  -0.04260   0.19301
  37        2PY        -0.14651  -0.27027   0.01053  -0.29545   0.20748
  38        2PZ        -0.15059   0.04434  -0.12181  -0.06361   0.06197
  39 11  C  1S          0.00001   0.00000  -0.03090   0.02628   0.00001
  40        2S         -0.00005   0.00002   0.11999  -0.09826  -0.00004
  41        2PX        -0.12353   0.04324   0.06792  -0.00217   0.02629
  42        2PY        -0.00009   0.00001   0.03047  -0.09357  -0.00005
  43        2PZ        -0.06713   0.02353  -0.12458   0.00400   0.01436
  44 12  O  1S          0.00004   0.00000  -0.01537  -0.04491   0.00000
  45        2S         -0.00018   0.00002   0.07921   0.21560   0.00002
  46        2PX        -0.12033   0.04745  -0.05935  -0.06431   0.40778
  47        2PY        -0.00011   0.00001   0.06852   0.31859   0.00004
  48        2PZ        -0.06579   0.02590   0.10898   0.11809   0.22221
  49 13  C  1S         -0.00023  -0.04762  -0.00092   0.02554  -0.01717
  50        2S          0.00395   0.16872   0.00363  -0.09005   0.08774
  51        2PX        -0.13665  -0.02551   0.14375   0.07656   0.15672
  52        2PY         0.14660   0.27028   0.01060  -0.29547  -0.20752
  53        2PZ         0.06613  -0.12130  -0.00174   0.00134   0.12853
  54 14  H  1S          0.08096   0.11016  -0.11176  -0.11389  -0.13757
  55 15  H  1S         -0.08082  -0.11016  -0.11185  -0.11389   0.13757
  56 16  H  1S         -0.01243  -0.08937  -0.21409   0.09505   0.02821
  57 17  H  1S         -0.01704  -0.11182   0.02705  -0.10646  -0.21717
  58 18  H  1S          0.01694   0.11182   0.02708  -0.10643   0.21707
  59 19  H  1S         -0.00467   0.13935  -0.04665  -0.13232  -0.03654
  60 20  H  1S          0.00465  -0.13934  -0.04666  -0.13232   0.03671
  61 21  H  1S         -0.11544  -0.10806   0.02124   0.13459  -0.19194
  62 22  H  1S          0.11557   0.10802   0.02127   0.13462   0.19184
  63 23  H  1S          0.09547   0.15975  -0.01688   0.19585  -0.17381
  64 24  H  1S          0.00006   0.00000   0.00751   0.04393   0.00002
  65 25  H  1S         -0.09551  -0.15976  -0.01694   0.19587   0.17384
  66 26  H  1S          0.00001   0.00000  -0.00592  -0.13992  -0.00002
                          36        37        38        39        40
                           O         O         O         O         V
     Eigenvalues --    -0.37661  -0.35444  -0.30748  -0.28897  -0.02829
   1 1   C  1S         -0.00667  -0.00010   0.01217   0.01310   0.03917
   2        2S          0.00535   0.00775  -0.05741  -0.07461  -0.22323
   3        2PX        -0.09006   0.05056  -0.00786  -0.08716  -0.01698
   4        2PY         0.36102  -0.11747   0.02911   0.28442   0.09817
   5        2PZ        -0.07722   0.00092  -0.07597  -0.12003  -0.19081
   6 2   C  1S          0.00568   0.00000  -0.01263  -0.01866   0.00082
   7        2S         -0.00406   0.00662   0.06562   0.10951  -0.02474
   8        2PX        -0.06810   0.07710  -0.05337   0.05092  -0.01264
   9        2PY        -0.26275  -0.08203  -0.09954  -0.31332   0.32818
  10        2PZ        -0.08840   0.02563   0.03256  -0.00102  -0.09519
  11 3   C  1S          0.00568  -0.00001  -0.01263   0.01866   0.00083
  12        2S         -0.00404  -0.00659   0.06563  -0.10950  -0.02481
  13        2PX         0.11117   0.06329   0.00156   0.02673   0.08700
  14        2PY        -0.26289   0.08204  -0.09956   0.31332   0.32817
  15        2PZ         0.00934   0.05089   0.06250   0.04335  -0.04093
  16 4   C  1S         -0.00665   0.00011   0.01217  -0.01310   0.03918
  17        2S          0.00530  -0.00778  -0.05742   0.07461  -0.22329
  18        2PX         0.11377   0.02821   0.06811  -0.14810   0.16960
  19        2PY         0.36097   0.11745   0.02913  -0.28443   0.09815
  20        2PZ         0.03375   0.04197  -0.03457  -0.00820  -0.08917
  21 5   C  1S          0.00171   0.00158  -0.00653   0.00449  -0.00081
  22        2S          0.00229   0.00518   0.02842  -0.03220  -0.00527
  23        2PX        -0.01072  -0.08762  -0.01412   0.08601   0.01711
  24        2PY        -0.18231  -0.23438  -0.00256   0.27716   0.10963
  25        2PZ         0.11848   0.04887   0.03302  -0.08106  -0.01718
  26 6   C  1S          0.00172  -0.00158  -0.00653  -0.00450  -0.00081
  27        2S          0.00228  -0.00518   0.02842   0.03220  -0.00528
  28        2PX        -0.09371  -0.00642  -0.02009  -0.02150   0.00522
  29        2PY        -0.18245   0.23439  -0.00254  -0.27715   0.10964
  30        2PZ         0.07328  -0.10011   0.02975   0.11622  -0.02369
  31 7   H  1S         -0.08665   0.11895  -0.02492  -0.16355  -0.11386
  32 8   H  1S         -0.08660  -0.11895  -0.02493   0.16354  -0.11388
  33 9   H  1S          0.13658   0.05252   0.01951  -0.15667  -0.05044
  34 10  C  1S          0.00035   0.03980   0.01535  -0.00582   0.03928
  35        2S         -0.00404  -0.17045  -0.08480   0.03189  -0.22613
  36        2PX        -0.04951   0.23200   0.16732   0.07071   0.11448
  37        2PY         0.13989  -0.16992   0.25752  -0.17391   0.21271
  38        2PZ         0.09355  -0.08721   0.02921  -0.14668   0.06180
  39 11  C  1S         -0.03353   0.00000  -0.00859   0.00000  -0.01474
  40        2S          0.13319   0.00000   0.06373   0.00000   0.03249
  41        2PX         0.03355  -0.04176   0.02720  -0.07195  -0.03983
  42        2PY         0.16137  -0.00001  -0.46337  -0.00002   0.49697
  43        2PZ        -0.06154  -0.02275  -0.04992  -0.03920   0.07319
  44 12  O  1S          0.02279   0.00000  -0.02781   0.00000   0.05490
  45        2S         -0.10933  -0.00001   0.13281   0.00000  -0.34516
  46        2PX         0.01886   0.63019  -0.15830   0.17779  -0.06742
  47        2PY        -0.20441   0.00000   0.48885   0.00002   0.17925
  48        2PZ        -0.03428   0.34343   0.29042   0.09691   0.12367
  49 13  C  1S          0.00034  -0.03980   0.01535   0.00582   0.03928
  50        2S         -0.00398   0.17045  -0.08479  -0.03190  -0.22614
  51        2PX        -0.05168   0.05245  -0.11523  -0.08494  -0.11396
  52        2PY         0.13978   0.16994   0.25751   0.17394   0.21268
  53        2PZ         0.09238   0.24223  -0.12479   0.13892  -0.06267
  54 14  H  1S          0.03682   0.01602   0.13078   0.07883  -0.17179
  55 15  H  1S          0.03690  -0.01601   0.13079  -0.07883  -0.17187
  56 16  H  1S          0.13659  -0.05252   0.01949   0.15666  -0.05042
  57 17  H  1S          0.18412   0.07077   0.08526   0.27072   0.39277
  58 18  H  1S          0.18424  -0.07076   0.08527  -0.27071   0.39280
  59 19  H  1S         -0.27214   0.09244  -0.03783  -0.23880   0.16673
  60 20  H  1S         -0.27211  -0.09242  -0.03785   0.23880   0.16670
  61 21  H  1S          0.13689   0.17750   0.00723  -0.22097   0.12587
  62 22  H  1S          0.13700  -0.17750   0.00721   0.22097   0.12589
  63 23  H  1S         -0.10778   0.08673  -0.21600   0.14314   0.34824
  64 24  H  1S         -0.08934   0.00001   0.44510   0.00003   0.47727
  65 25  H  1S         -0.10768  -0.08674  -0.21599  -0.14315   0.34823
  66 26  H  1S          0.10490   0.00001  -0.19685  -0.00001   0.34232
                          41        42        43        44        45
                           V         V         V         V         V
     Eigenvalues --     0.01749   0.03280   0.06347   0.06978   0.09948
   1 1   C  1S          0.00021   0.00065  -0.01604  -0.03478   0.07563
   2        2S          0.01514   0.00417   0.08976   0.19178  -0.43622
   3        2PX         0.07959   0.13115  -0.04501  -0.07904  -0.11431
   4        2PY        -0.29592   0.12846   0.14125   0.22665  -0.22149
   5        2PZ        -0.02168   0.01739   0.39066   0.21456  -0.34039
   6 2   C  1S         -0.01592  -0.05331   0.08919   0.01700  -0.07929
   7        2S          0.09455   0.26827  -0.50867  -0.09793   0.47303
   8        2PX         0.09933   0.60913  -0.07247   0.04302  -0.08500
   9        2PY        -0.18584   0.22829  -0.24950  -0.17747   0.12477
  10        2PZ        -0.11010   0.29244   0.22572   0.24092  -0.32771
  11 3   C  1S         -0.01590   0.05329  -0.08920   0.01697  -0.07909
  12        2S          0.09446  -0.26821   0.50870  -0.09770   0.47186
  13        2PX         0.03889   0.57599   0.15052  -0.22567   0.32288
  14        2PY        -0.18588  -0.22823   0.24955  -0.17758   0.12747
  15        2PZ        -0.14301   0.35336  -0.18336   0.09446  -0.10507
  16 4   C  1S          0.00021  -0.00062   0.01606  -0.03480   0.07585
  17        2S          0.01512  -0.00434  -0.08989   0.19187  -0.43771
  18        2PX        -0.02488   0.08578   0.30397  -0.13743   0.35053
  19        2PY        -0.29593  -0.12848  -0.14137   0.22641  -0.21794
  20        2PZ        -0.07859   0.10077  -0.24971   0.18266  -0.08787
  21 5   C  1S         -0.01386  -0.02336   0.08912   0.02106  -0.04762
  22        2S          0.09265   0.13971  -0.50402  -0.13177   0.27954
  23        2PX        -0.07239   0.09502   0.50265   0.07848   0.14010
  24        2PY        -0.25642   0.00179  -0.29599   0.25562   0.15697
  25        2PZ         0.04527   0.17312   0.23159  -0.04234   0.04427
  26 6   C  1S         -0.01385   0.02336  -0.08913   0.02102  -0.04754
  27        2S          0.09259  -0.13968   0.50409  -0.13155   0.27914
  28        2PX         0.00127   0.19694   0.46709  -0.00669  -0.11337
  29        2PY        -0.25646  -0.00175   0.29592   0.25585   0.15477
  30        2PZ         0.08537  -0.01397   0.29687  -0.08880  -0.09270
  31 7   H  1S          0.18850   0.08158  -0.06084  -0.13411  -0.34936
  32 8   H  1S          0.18843  -0.08159   0.06083  -0.13399  -0.35187
  33 9   H  1S          0.22127  -0.15395  -0.10588  -0.19224   0.01130
  34 10  C  1S          0.01612   0.01330   0.03015   0.05108   0.04454
  35        2S         -0.07036  -0.06560  -0.16564  -0.28075  -0.23017
  36        2PX         0.28144   0.23516   0.01104   0.18355   0.16630
  37        2PY        -0.07023  -0.15463  -0.00677  -0.25828  -0.28289
  38        2PZ        -0.19297   0.02738   0.14324  -0.19059   0.04835
  39 11  C  1S         -0.05976   0.00001   0.00001  -0.06517  -0.11158
  40        2S          0.28953  -0.00003  -0.00003   0.33697   0.64869
  41        2PX         0.04690   0.47975   0.05761   0.09203   0.12339
  42        2PY         0.44132  -0.00017  -0.00009   0.30754  -0.04858
  43        2PZ        -0.08588   0.26146   0.03140  -0.16872  -0.22565
  44 12  O  1S          0.04790  -0.00002  -0.00001   0.03244  -0.01241
  45        2S         -0.29723   0.00012   0.00007  -0.19739   0.09135
  46        2PX        -0.04098  -0.20453  -0.03051  -0.00448  -0.04986
  47        2PY         0.16426  -0.00008  -0.00005   0.13336  -0.21622
  48        2PZ         0.07512  -0.11147  -0.01663   0.00816   0.09113
  49 13  C  1S          0.01612  -0.01333  -0.03018   0.05107   0.04429
  50        2S         -0.07032   0.06574   0.16582  -0.28069  -0.22853
  51        2PX         0.00968   0.15047   0.12636   0.06068  -0.12898
  52        2PY        -0.07018   0.15466   0.00685  -0.25809  -0.28460
  53        2PZ        -0.34107   0.18295  -0.06834  -0.25753  -0.11391
  54 14  H  1S         -0.00247   0.14964   0.04595   0.33395   0.07533
  55 15  H  1S         -0.00253  -0.14971  -0.04609   0.33405   0.07354
  56 16  H  1S          0.22137   0.15398   0.10600  -0.19228   0.01502
  57 17  H  1S         -0.28679   0.22274  -0.12906  -0.23609   0.01181
  58 18  H  1S         -0.28684  -0.22264   0.12913  -0.23631   0.01537
  59 19  H  1S         -0.34540   0.16216   0.16476   0.25510  -0.13562
  60 20  H  1S         -0.34541  -0.16215  -0.16488   0.25478  -0.13090
  61 21  H  1S         -0.35155  -0.04049  -0.25026   0.36342   0.12409
  62 22  H  1S         -0.35158   0.04052   0.25014   0.36367   0.12138
  63 23  H  1S          0.00537  -0.20030   0.08233  -0.22148  -0.22169
  64 24  H  1S          0.35679  -0.00016  -0.00007   0.19446  -0.24164
  65 25  H  1S          0.00542   0.20027  -0.08228  -0.22128  -0.22400
  66 26  H  1S          0.34432  -0.00015  -0.00009   0.29061  -0.24667
                          46        47        48        49        50
                           V         V         V         V         V
     Eigenvalues --     0.10015   0.14367   0.15046   0.15164   0.15468
   1 1   C  1S         -0.02232   0.00252   0.04854   0.10623  -0.06337
   2        2S          0.14873  -0.02015  -0.29795  -0.62618   0.40271
   3        2PX         0.19771   0.04419  -0.15963   0.04996  -0.15703
   4        2PY        -0.36733  -0.12309  -0.19213  -0.30830  -0.09536
   5        2PZ         0.19309   0.06413   0.20757  -0.09577  -0.15591
   6 2   C  1S         -0.02031   0.07555  -0.01095  -0.07672  -0.05834
   7        2S          0.11525  -0.44178   0.07854   0.44473   0.38515
   8        2PX         0.18504  -0.02449   0.12197   0.04185  -0.23912
   9        2PY        -0.27579  -0.08829  -0.26856   0.28312  -0.08334
  10        2PZ         0.06536  -0.27950  -0.10337  -0.14778   0.13658
  11 3   C  1S          0.02109  -0.07559  -0.01091   0.07661  -0.05843
  12        2S         -0.11997   0.44205   0.07831  -0.44402   0.38568
  13        2PX         0.15198  -0.24807   0.02063  -0.10144   0.01519
  14        2PY         0.27450   0.08842  -0.26872  -0.28299  -0.08286
  15        2PZ         0.12107   0.13113  -0.15841   0.11593   0.27472
  16 4   C  1S          0.02158  -0.00253   0.04846  -0.10634  -0.06318
  17        2S         -0.14450   0.02020  -0.29752   0.62689   0.40159
  18        2PX         0.26597   0.07800  -0.08793  -0.05296   0.21628
  19        2PY         0.36963   0.12301  -0.19186   0.30819  -0.09585
  20        2PZ         0.06241   0.00237   0.24673   0.09388   0.04727
  21 5   C  1S         -0.00629   0.00856  -0.02174   0.10109  -0.04875
  22        2S          0.02999  -0.05438   0.12906  -0.58902   0.31210
  23        2PX         0.08925   0.03284   0.13875   0.23088   0.16680
  24        2PY         0.22304   0.07448   0.37925  -0.26167  -0.17296
  25        2PZ        -0.07311  -0.07197   0.21436   0.03531  -0.18449
  26 6   C  1S          0.00677  -0.00859  -0.02181  -0.10117  -0.04858
  27        2S         -0.03283   0.05457   0.12946   0.58953   0.31112
  28        2PX        -0.01197  -0.04269  -0.25527   0.15500   0.06442
  29        2PY        -0.22439  -0.07461   0.37939   0.26115  -0.17340
  30        2PZ         0.11553   0.06658  -0.00028   0.17457  -0.24041
  31 7   H  1S          0.26343   0.07034  -0.19569  -0.23160  -0.36382
  32 8   H  1S         -0.26003  -0.07042  -0.19556   0.23117  -0.36426
  33 9   H  1S         -0.39841  -0.14900   0.19764  -0.45134  -0.41296
  34 10  C  1S          0.02719   0.07259  -0.08076  -0.04413  -0.00197
  35        2S         -0.17179  -0.42662   0.48354   0.25683  -0.00866
  36        2PX         0.06767  -0.09621  -0.03724  -0.11931  -0.31949
  37        2PY         0.16877  -0.47262   0.13823   0.01783  -0.10648
  38        2PZ         0.17517  -0.07375   0.05291  -0.12420   0.33651
  39 11  C  1S          0.00052   0.00001   0.07002   0.00003   0.06794
  40        2S         -0.00302  -0.00003  -0.40388  -0.00018  -0.40384
  41        2PX         0.07195   0.30313  -0.11384  -0.23154  -0.15597
  42        2PY         0.00026   0.00002  -0.01232   0.00007   0.07552
  43        2PZ         0.04052   0.16525   0.20874  -0.12595   0.28662
  44 12  O  1S          0.00006   0.00001   0.01469   0.00003   0.04155
  45        2S         -0.00043  -0.00005  -0.10840  -0.00021  -0.28778
  46        2PX        -0.03404  -0.11107   0.00772   0.08630  -0.01606
  47        2PY         0.00104   0.00003   0.15085   0.00016   0.26200
  48        2PZ        -0.01914  -0.06050  -0.01411   0.04709   0.02931
  49 13  C  1S         -0.02760  -0.07256  -0.08074   0.04421  -0.00202
  50        2S          0.17392   0.42640   0.48345  -0.25731  -0.00839
  51        2PX         0.18523  -0.11423  -0.02442  -0.16926  -0.10923
  52        2PY        -0.16614   0.47254   0.13830  -0.01814  -0.10667
  53        2PZ        -0.03718  -0.04060   0.05992  -0.03213   0.45100
  54 14  H  1S          0.17841  -0.56159  -0.35790  -0.06189  -0.00543
  55 15  H  1S         -0.17894   0.56167  -0.35774   0.06217  -0.00584
  56 16  H  1S          0.39824   0.14885   0.19798   0.45057  -0.41369
  57 17  H  1S         -0.36129   0.05234  -0.35666   0.14732  -0.15464
  58 18  H  1S          0.36112  -0.05225  -0.35674  -0.14727  -0.15431
  59 19  H  1S         -0.48659  -0.20175  -0.16564  -0.17439  -0.16047
  60 20  H  1S          0.48809   0.20166  -0.16545   0.17418  -0.16074
  61 21  H  1S          0.27756   0.09697   0.45489  -0.11205  -0.25405
  62 22  H  1S         -0.27853  -0.09718   0.45492   0.11132  -0.25425
  63 23  H  1S          0.22933  -0.48344   0.08190  -0.07764  -0.12645
  64 24  H  1S          0.00116   0.00000   0.09857   0.00005   0.10950
  65 25  H  1S         -0.22730   0.48340   0.08204   0.07735  -0.12680
  66 26  H  1S          0.00120   0.00005   0.18285   0.00026   0.39497
                          51        52        53        54        55
                           V         V         V         V         V
     Eigenvalues --     0.16157   0.20700   0.24857   0.27644   0.29565
   1 1   C  1S          0.06221  -0.00067  -0.01760   0.03625  -0.02778
   2        2S         -0.39799   0.01397   0.10012  -0.22756   0.19968
   3        2PX        -0.20491  -0.36496  -0.17146   0.44155  -0.00931
   4        2PY        -0.13295  -0.23141   0.12172   0.18103  -0.01116
   5        2PZ         0.27307   0.02613  -0.07009  -0.32710  -0.05182
   6 2   C  1S         -0.03458  -0.02768  -0.02997  -0.03738  -0.01854
   7        2S          0.21743   0.18721   0.22138   0.24480   0.10206
   8        2PX        -0.29603  -0.10649  -0.06486  -0.09196   0.63776
   9        2PY         0.18204  -0.09605  -0.10449   0.00350  -0.21804
  10        2PZ         0.22567  -0.05805   0.19472  -0.22720  -0.06275
  11 3   C  1S         -0.03459   0.02768  -0.02997  -0.03739   0.01855
  12        2S          0.21751  -0.18724   0.22137   0.24481  -0.10211
  13        2PX        -0.02908  -0.10653  -0.12842   0.24075   0.29301
  14        2PY         0.18214   0.09602  -0.10445   0.00349   0.21802
  15        2PZ         0.37101  -0.05804   0.16008  -0.04583   0.56980
  16 4   C  1S          0.06225   0.00066  -0.01759   0.03624   0.02778
  17        2S         -0.39820  -0.01395   0.10006  -0.22752  -0.19967
  18        2PX        -0.11837  -0.17588   0.15184   0.03554  -0.04835
  19        2PY        -0.13305   0.23141   0.12173   0.18103   0.01117
  20        2PZ         0.32018  -0.32084   0.10607  -0.54835   0.02042
  21 5   C  1S         -0.01247   0.06912   0.03042   0.07165   0.00865
  22        2S          0.08621  -0.43816  -0.19230  -0.49845  -0.04821
  23        2PX        -0.16836  -0.28752  -0.20968  -0.16802  -0.39853
  24        2PY         0.07728  -0.13502  -0.00350   0.06219  -0.08948
  25        2PZ         0.50012  -0.09565   0.12711  -0.21341   0.32291
  26 6   C  1S         -0.01245  -0.06912   0.03041   0.07165  -0.00866
  27        2S          0.08609   0.43813  -0.19228  -0.49845   0.04830
  28        2PX        -0.32899  -0.23624   0.00685   0.27039   0.05527
  29        2PY         0.07725   0.13503  -0.00348   0.06220   0.08944
  30        2PZ         0.41251  -0.18974   0.24505   0.02548  -0.50984
  31 7   H  1S          0.39724  -0.45009   0.32015   0.19562  -0.50055
  32 8   H  1S          0.39723   0.45013   0.32022   0.19566   0.50061
  33 9   H  1S          0.19312   0.23781  -0.25744   0.25409   0.09582
  34 10  C  1S          0.06109   0.02879  -0.02670  -0.06013   0.05462
  35        2S         -0.38828  -0.16223   0.17873   0.40532  -0.38933
  36        2PX        -0.30217   0.48104   0.31339  -0.04415  -0.41526
  37        2PY        -0.15717   0.03050  -0.13317  -0.28847   0.03317
  38        2PZ         0.25210  -0.12548   0.36982   0.12419   0.25282
  39 11  C  1S          0.01999   0.00000  -0.09681   0.02505   0.00002
  40        2S         -0.12601  -0.00001   0.61146  -0.14157  -0.00010
  41        2PX        -0.05865   0.62019  -0.19131   0.01143  -0.27761
  42        2PY         0.05768   0.00000   0.10803  -0.15890  -0.00004
  43        2PZ         0.10759   0.33797   0.35102  -0.02100  -0.15143
  44 12  O  1S          0.02181   0.00000   0.03445   0.03089  -0.00001
  45        2S         -0.14810   0.00000  -0.25239  -0.21155   0.00007
  46        2PX        -0.00963  -0.19530  -0.25085   0.07174   0.06879
  47        2PY         0.11702   0.00001  -0.26820   0.37449   0.00006
  48        2PZ         0.01769  -0.10645   0.46033  -0.13165   0.03735
  49 13  C  1S          0.06108  -0.02880  -0.02671  -0.06013  -0.05462
  50        2S         -0.38828   0.16225   0.17878   0.40534   0.38938
  51        2PX        -0.04799   0.15533  -0.48067  -0.08045  -0.01254
  52        2PY        -0.15727  -0.03049  -0.13318  -0.28846  -0.03311
  53        2PZ         0.39055   0.47223  -0.06295   0.10438  -0.48605
  54 14  H  1S          0.27009   0.15913  -0.50593  -0.16172  -0.23423
  55 15  H  1S          0.26997  -0.15910  -0.50588  -0.16169   0.23427
  56 16  H  1S          0.19300  -0.23781  -0.25747   0.25411  -0.09609
  57 17  H  1S          0.16195  -0.16959  -0.16087  -0.02451  -0.26952
  58 18  H  1S          0.16203   0.16956  -0.16081  -0.02451   0.26952
  59 19  H  1S         -0.08762  -0.25541   0.14567   0.27026  -0.02777
  60 20  H  1S         -0.08769   0.25541   0.14569   0.27026   0.02777
  61 21  H  1S          0.07040  -0.06282   0.02616   0.12885  -0.10468
  62 22  H  1S          0.07041   0.06284   0.02618   0.12887   0.10463
  63 23  H  1S         -0.11397   0.04548  -0.16188  -0.43190   0.09338
  64 24  H  1S          0.01919   0.00000   0.04192  -0.22937  -0.00003
  65 25  H  1S         -0.11411  -0.04548  -0.16190  -0.43189  -0.09333
  66 26  H  1S          0.19957   0.00002  -0.35749   0.59048   0.00008
                          56        57        58        59        60
                           V         V         V         V         V
     Eigenvalues --     0.31935   0.33819   0.36226   0.39954   0.41594
   1 1   C  1S          0.00285   0.00462   0.09818   0.02002  -0.00661
   2        2S         -0.00359  -0.01962  -0.69299  -0.15342   0.07339
   3        2PX         0.58544   0.14265   0.26053  -0.10385   0.55122
   4        2PY        -0.00562   0.08581   0.22986   0.07947   0.09073
   5        2PZ         0.30606  -0.30066   0.33416   0.44373  -0.39482
   6 2   C  1S         -0.00294  -0.06959   0.02235   0.05296   0.02654
   7        2S          0.01234   0.48812  -0.15707  -0.36033  -0.18157
   8        2PX        -0.20341  -0.07302  -0.07609   0.07565  -0.30050
   9        2PY         0.02271  -0.07632  -0.06743   0.19606  -0.06161
  10        2PZ         0.26698  -0.01203  -0.16149   0.29608  -0.53196
  11 3   C  1S         -0.00292   0.06959  -0.02235   0.05295  -0.02655
  12        2S          0.01222  -0.48814   0.15706  -0.36030   0.18164
  13        2PX        -0.11389  -0.04969  -0.17697  -0.28989  -0.60989
  14        2PY         0.02281   0.07632   0.06743   0.19605   0.06159
  15        2PZ         0.31586  -0.05487   0.02362   0.09691   0.03584
  16 4   C  1S          0.00288  -0.00462  -0.09818   0.02003   0.00661
  17        2S         -0.00375   0.01962   0.69300  -0.15344  -0.07338
  18        2PX        -0.57456  -0.17530   0.42199  -0.31661  -0.03299
  19        2PY        -0.00559  -0.08581  -0.22987   0.07946  -0.09073
  20        2PZ        -0.32611   0.28287   0.03781   0.32787   0.67717
  21 5   C  1S         -0.00363  -0.02241  -0.06840  -0.07713  -0.00778
  22        2S          0.00303   0.16386   0.46393   0.55669   0.08529
  23        2PX         0.24296   0.27292  -0.52143   0.23545  -0.00157
  24        2PY        -0.00296  -0.04300  -0.23088  -0.19604   0.10113
  25        2PZ        -0.30583   0.21258  -0.40303   0.12108   0.69869
  26 6   C  1S         -0.00364   0.02240   0.06840  -0.07713   0.00778
  27        2S          0.00310  -0.16385  -0.46390   0.55669  -0.08534
  28        2PX         0.12536   0.32657  -0.62133  -0.22930   0.58632
  29        2PY        -0.00295   0.04299   0.23087  -0.19605  -0.10112
  30        2PZ        -0.37016   0.11414  -0.21975  -0.13228  -0.38006
  31 7   H  1S         -0.32317   0.14567  -0.05841  -0.24439  -0.24743
  32 8   H  1S         -0.32296  -0.14566   0.05837  -0.24436   0.24743
  33 9   H  1S          0.57197   0.02175  -0.51556   0.14316  -0.17234
  34 10  C  1S          0.02126   0.09060   0.03810  -0.02801  -0.00186
  35        2S         -0.14949  -0.60982  -0.26349   0.20495   0.00890
  36        2PX        -0.10625  -0.05140   0.09167   0.42727   0.29116
  37        2PY        -0.05679   0.35845   0.11195  -0.14403  -0.04558
  38        2PZ         0.12270  -0.54045   0.05989   0.25237   0.27136
  39 11  C  1S         -0.03485   0.00000   0.00000  -0.04199   0.00000
  40        2S          0.21605   0.00000   0.00001   0.29917  -0.00002
  41        2PX        -0.24862   0.35524   0.14403   0.21887   0.13065
  42        2PY         0.15778  -0.00001   0.00001  -0.22043   0.00003
  43        2PZ         0.45612   0.19358   0.07853  -0.40161   0.07126
  44 12  O  1S          0.02986   0.00000   0.00000  -0.00189   0.00000
  45        2S         -0.22704   0.00000  -0.00001   0.02920  -0.00001
  46        2PX        -0.20671  -0.09380  -0.04266   0.10716  -0.03753
  47        2PY        -0.21927   0.00001  -0.00001   0.21266  -0.00002
  48        2PZ         0.37935  -0.05113  -0.02322  -0.19665  -0.02042
  49 13  C  1S          0.02123  -0.09060  -0.03810  -0.02800   0.00187
  50        2S         -0.14930   0.60984   0.26348   0.20494  -0.00894
  51        2PX        -0.04560  -0.48201   0.10000  -0.44363   0.38588
  52        2PY        -0.05684  -0.35846  -0.11195  -0.14402   0.04561
  53        2PZ         0.15563   0.24974   0.04459  -0.22224   0.09764
  54 14  H  1S          0.04740  -0.51955   0.00019  -0.40975   0.29575
  55 15  H  1S          0.04755   0.51956  -0.00020  -0.40979  -0.29573
  56 16  H  1S          0.57189  -0.02179   0.51558   0.14316   0.17236
  57 17  H  1S          0.01564  -0.16834  -0.08094   0.31799  -0.05907
  58 18  H  1S          0.01577   0.16835   0.08095   0.31797   0.05902
  59 19  H  1S          0.00559   0.13778   0.38591   0.11374   0.11026
  60 20  H  1S          0.00565  -0.13778  -0.38593   0.11374  -0.11026
  61 21  H  1S         -0.01145  -0.07872  -0.35271  -0.31862   0.12413
  62 22  H  1S         -0.01146   0.07872   0.35269  -0.31864  -0.12410
  63 23  H  1S         -0.03647   0.53531   0.18439  -0.24233  -0.06027
  64 24  H  1S          0.16201  -0.00001   0.00001  -0.34482   0.00003
  65 25  H  1S         -0.03654  -0.53532  -0.18439  -0.24232   0.06031
  66 26  H  1S         -0.31400   0.00002  -0.00001   0.35447  -0.00003
                          61        62        63        64        65
                           V         V         V         V         V
     Eigenvalues --     0.45940   0.51443   0.56412   0.59658   0.64924
   1 1   C  1S         -0.03040  -0.08878  -0.08567   0.06163  -0.02506
   2        2S          0.21994   0.66466   0.64741  -0.47930   0.19635
   3        2PX         0.27198   0.26495  -0.02456  -0.30284  -0.05815
   4        2PY         0.03938  -0.31550  -0.36176   0.16285  -0.13436
   5        2PZ         0.41662  -0.04157   0.00230   0.01187   0.01345
   6 2   C  1S          0.02705  -0.02642   0.07471   0.07588   0.05398
   7        2S         -0.16986   0.22275  -0.57524  -0.59293  -0.42971
[...]
  53        2PZ         1.01680
  54 14  H  1S          0.70773
  55 15  H  1S          0.70773
  56 16  H  1S          0.70958
  57 17  H  1S          0.73783
  58 18  H  1S          0.73777
  59 19  H  1S          0.73052
  60 20  H  1S          0.73052
  61 21  H  1S          0.72816
  62 22  H  1S          0.72814
  63 23  H  1S          0.73193
  64 24  H  1S          0.80570
  65 25  H  1S          0.73192
  66 26  H  1S          0.55790
          Condensed to atoms (all electrons):
               1          2          3          4          5          6
     1  C    5.351922   0.309211  -0.015526  -0.007276  -0.019074   0.330195
     2  C    0.309211   5.154351   0.328047  -0.015522  -0.010915  -0.020096
     3  C   -0.015526   0.328047   5.154542   0.309214  -0.020099  -0.010914
     4  C   -0.007276  -0.015522   0.309214   5.351808   0.330183  -0.019077
     5  C   -0.019074  -0.010915  -0.020099   0.330183   5.318943   0.325920
     6  C    0.330195  -0.020096  -0.010914  -0.019077   0.325920   5.318853
     7  H   -0.016267   0.001056   0.000071   0.000844  -0.014099   0.358640
     8  H    0.000844   0.000071   0.001056  -0.016265   0.358641  -0.014097
     9  H    0.000030   0.000710  -0.010898   0.354667  -0.014311   0.001003
    10  C    0.000568  -0.037430   0.330878  -0.012048   0.000720   0.000063
    11  C    0.000881  -0.040383  -0.040375   0.000881  -0.000007  -0.000007
    12  O   -0.000001   0.000409   0.000409  -0.000001   0.000000   0.000000
    13  C   -0.012048   0.330846  -0.037434   0.000568   0.000063   0.000720
    14  H   -0.002742  -0.008216   0.001219  -0.000009   0.000000   0.000020
    15  H   -0.000009   0.001219  -0.008215  -0.002743   0.000020   0.000000
    16  H    0.354665  -0.010896   0.000710   0.000030   0.001003  -0.014309
    17  Bq   0.000000   0.000000   0.000000   0.000000   0.000000   0.000000
    18  Bq   0.000000   0.000000   0.000000   0.000000   0.000000   0.000000
    19  Bq   0.000000   0.000000   0.000000   0.000000   0.000000   0.000000
    20  Bq   0.000000   0.000000   0.000000   0.000000   0.000000   0.000000
    21  Bq   0.000000   0.000000   0.000000   0.000000   0.000000   0.000000
    22  Bq   0.000000   0.000000   0.000000   0.000000   0.000000   0.000000
    23  H   -0.075166   0.465062  -0.046264   0.002590   0.000027   0.002697
    24  H    0.002590  -0.046268   0.465049  -0.075154   0.002697   0.000027
    25  H    0.430339  -0.064476   0.002092  -0.000187   0.003069  -0.073588
    26  H   -0.000187   0.002093  -0.064479   0.430343  -0.073583   0.003069
    27  H    0.002571  -0.000101   0.003388  -0.072620   0.420004  -0.055133
    28  H   -0.072621   0.003388  -0.000101   0.002571  -0.055134   0.420005
    29  H   -0.000037   0.002987  -0.077752   0.004837  -0.000103  -0.000013
    30  H   -0.000112   0.002499   0.002499  -0.000112   0.000002   0.000002
    31  H    0.004836  -0.077750   0.002987  -0.000037  -0.000013  -0.000103
    32  H    0.000002  -0.000088  -0.000088   0.000002   0.000000   0.000000
               7          8          9         10         11         12
     1  C   -0.016267   0.000844   0.000030   0.000568   0.000881  -0.000001
     2  C    0.001056   0.000071   0.000710  -0.037430  -0.040383   0.000409
     3  C    0.000071   0.001056  -0.010898   0.330878  -0.040375   0.000409
     4  C    0.000844  -0.016265   0.354667  -0.012048   0.000881  -0.000001
     5  C   -0.014099   0.358641  -0.014311   0.000720  -0.000007   0.000000
     6  C    0.358640  -0.014097   0.001003   0.000063  -0.000007   0.000000
     7  H    0.423629  -0.004347  -0.000007   0.000000   0.000000   0.000000
     8  H   -0.004347   0.423616  -0.005725  -0.000006   0.000000   0.000000
     9  H   -0.000007  -0.005725   0.416198  -0.003158   0.000005   0.000000
    10  C    0.000000  -0.000006  -0.003158   5.482864   0.296535  -0.018552
    11  C    0.000000   0.000000   0.000005   0.296535   4.877724   0.277249
    12  O    0.000000   0.000000   0.000000  -0.018552   0.277249   8.056074
    13  C   -0.000006   0.000000  -0.000010  -0.046556   0.296552  -0.018553
    14  H   -0.000001   0.000000   0.000000   0.000664  -0.007468  -0.000738
    15  H    0.000000  -0.000001   0.000472   0.351119  -0.007467  -0.000738
    16  H   -0.005725  -0.000007   0.000001  -0.000010   0.000005   0.000000
    17  Bq   0.000000   0.000000   0.000000   0.000000   0.000000   0.000000
    18  Bq   0.000000   0.000000   0.000000   0.000000   0.000000   0.000000
    19  Bq   0.000000   0.000000   0.000000   0.000000   0.000000   0.000000
    20  Bq   0.000000   0.000000   0.000000   0.000000   0.000000   0.000000
    21  Bq   0.000000   0.000000   0.000000   0.000000   0.000000   0.000000
    22  Bq   0.000000   0.000000   0.000000   0.000000   0.000000   0.000000
    23  H   -0.000138   0.000018  -0.000071   0.002797   0.003075  -0.000058
    24  H    0.000018  -0.000138   0.003163  -0.087646   0.003076  -0.000058
    25  H    0.004454  -0.000112   0.000016  -0.000062  -0.000085   0.000000
    26  H   -0.000112   0.004453  -0.036351   0.003657  -0.000085   0.000000
    27  H    0.002931  -0.036128   0.004228  -0.000096   0.000002   0.000000
    28  H   -0.036126   0.002931  -0.000101   0.000010   0.000002   0.000000
    29  H    0.000000   0.000004  -0.000253   0.424194  -0.046457   0.001801
    30  H    0.000000   0.000000  -0.000001  -0.060887   0.463564  -0.084281
    31  H    0.000004   0.000000   0.000002   0.002303  -0.046458   0.001802
    32  H    0.000000   0.000000   0.000000   0.003891  -0.084132   0.303556
              13         14         15         16         17         18
     1  C   -0.012048  -0.002742  -0.000009   0.354665   0.000000   0.000000
     2  C    0.330846  -0.008216   0.001219  -0.010896   0.000000   0.000000
     3  C   -0.037434   0.001219  -0.008215   0.000710   0.000000   0.000000
     4  C    0.000568  -0.000009  -0.002743   0.000030   0.000000   0.000000
     5  C    0.000063   0.000000   0.000020   0.001003   0.000000   0.000000
     6  C    0.000720   0.000020   0.000000  -0.014309   0.000000   0.000000
     7  H   -0.000006  -0.000001   0.000000  -0.005725   0.000000   0.000000
     8  H    0.000000   0.000000  -0.000001  -0.000007   0.000000   0.000000
     9  H   -0.000010   0.000000   0.000472   0.000001   0.000000   0.000000
    10  C   -0.046556   0.000664   0.351119  -0.000010   0.000000   0.000000
    11  C    0.296552  -0.007468  -0.007467   0.000005   0.000000   0.000000
    12  O   -0.018553  -0.000738  -0.000738   0.000000   0.000000   0.000000
    13  C    5.482925   0.351120   0.000664  -0.003158   0.000000   0.000000
    14  H    0.351120   0.403050  -0.000007   0.000472   0.000000   0.000000
    15  H    0.000664  -0.000007   0.403053   0.000000   0.000000   0.000000
    16  H   -0.003158   0.000472   0.000000   0.416166   0.000000   0.000000
    17  Bq   0.000000   0.000000   0.000000   0.000000   0.000000   0.000000
    18  Bq   0.000000   0.000000   0.000000   0.000000   0.000000   0.000000
    19  Bq   0.000000   0.000000   0.000000   0.000000   0.000000   0.000000
    20  Bq   0.000000   0.000000   0.000000   0.000000   0.000000   0.000000
    21  Bq   0.000000   0.000000   0.000000   0.000000   0.000000   0.000000
    22  Bq   0.000000   0.000000   0.000000   0.000000   0.000000   0.000000
    23  H   -0.087642   0.004252  -0.000091   0.003162   0.000000   0.000000
    24  H    0.002798  -0.000091   0.004253  -0.000071   0.000000   0.000000
    25  H    0.003656  -0.000184   0.000002  -0.036352   0.000000   0.000000
    26  H   -0.000062   0.000002  -0.000184   0.000016   0.000000   0.000000
    27  H    0.000010   0.000000  -0.000001  -0.000101   0.000000   0.000000
    28  H   -0.000096  -0.000001   0.000000   0.004229   0.000000   0.000000
    29  H    0.002303  -0.000020  -0.036460   0.000002   0.000000   0.000000
    30  H   -0.060886   0.002917   0.002917  -0.000001   0.000000   0.000000
    31  H    0.424192  -0.036457  -0.000020  -0.000253   0.000000   0.000000
    32  H    0.003891  -0.000055  -0.000055   0.000000   0.000000   0.000000
              19         20         21         22         23         24
     1  C    0.000000   0.000000   0.000000   0.000000  -0.075166   0.002590
     2  C    0.000000   0.000000   0.000000   0.000000   0.465062  -0.046268
     3  C    0.000000   0.000000   0.000000   0.000000  -0.046264   0.465049
     4  C    0.000000   0.000000   0.000000   0.000000   0.002590  -0.075154
     5  C    0.000000   0.000000   0.000000   0.000000   0.000027   0.002697
     6  C    0.000000   0.000000   0.000000   0.000000   0.002697   0.000027
     7  H    0.000000   0.000000   0.000000   0.000000  -0.000138   0.000018
     8  H    0.000000   0.000000   0.000000   0.000000   0.000018  -0.000138
     9  H    0.000000   0.000000   0.000000   0.000000  -0.000071   0.003163
    10  C    0.000000   0.000000   0.000000   0.000000   0.002797  -0.087646
    11  C    0.000000   0.000000   0.000000   0.000000   0.003075   0.003076
    12  O    0.000000   0.000000   0.000000   0.000000  -0.000058  -0.000058
    13  C    0.000000   0.000000   0.000000   0.000000  -0.087642   0.002798
    14  H    0.000000   0.000000   0.000000   0.000000   0.004252  -0.000091
    15  H    0.000000   0.000000   0.000000   0.000000  -0.000091   0.004253
    16  H    0.000000   0.000000   0.000000   0.000000   0.003162  -0.000071
    17  Bq   0.000000   0.000000   0.000000   0.000000   0.000000   0.000000
    18  Bq   0.000000   0.000000   0.000000   0.000000   0.000000   0.000000
    19  Bq   0.000000   0.000000   0.000000   0.000000   0.000000   0.000000
    20  Bq   0.000000   0.000000   0.000000   0.000000   0.000000   0.000000
    21  Bq   0.000000   0.000000   0.000000   0.000000   0.000000   0.000000
    22  Bq   0.000000   0.000000   0.000000   0.000000   0.000000   0.000000
    23  H    0.000000   0.000000   0.000000   0.000000   0.590579  -0.029343
    24  H    0.000000   0.000000   0.000000   0.000000  -0.029343   0.590535
    25  H    0.000000   0.000000   0.000000   0.000000  -0.044290   0.000760
    26  H    0.000000   0.000000   0.000000   0.000000   0.000760  -0.044295
    27  H    0.000000   0.000000   0.000000   0.000000  -0.000066   0.000978
    28  H    0.000000   0.000000   0.000000   0.000000   0.000979  -0.000066
    29  H    0.000000   0.000000   0.000000   0.000000   0.001118  -0.057328
    30  H    0.000000   0.000000   0.000000   0.000000   0.001143   0.001143
    31  H    0.000000   0.000000   0.000000   0.000000  -0.057325   0.001117
    32  H    0.000000   0.000000   0.000000   0.000000   0.000025   0.000025
              25         26         27         28         29         30
     1  C    0.430339  -0.000187   0.002571  -0.072621  -0.000037  -0.000112
     2  C   -0.064476   0.002093  -0.000101   0.003388   0.002987   0.002499
     3  C    0.002092  -0.064479   0.003388  -0.000101  -0.077752   0.002499
     4  C   -0.000187   0.430343  -0.072620   0.002571   0.004837  -0.000112
     5  C    0.003069  -0.073583   0.420004  -0.055134  -0.000103   0.000002
     6  C   -0.073588   0.003069  -0.055133   0.420005  -0.000013   0.000002
     7  H    0.004454  -0.000112   0.002931  -0.036126   0.000000   0.000000
     8  H   -0.000112   0.004453  -0.036128   0.002931   0.000004   0.000000
     9  H    0.000016  -0.036351   0.004228  -0.000101  -0.000253  -0.000001
    10  C   -0.000062   0.003657  -0.000096   0.000010   0.424194  -0.060887
    11  C   -0.000085  -0.000085   0.000002   0.000002  -0.046457   0.463564
    12  O    0.000000   0.000000   0.000000   0.000000   0.001801  -0.084281
    13  C    0.003656  -0.000062   0.000010  -0.000096   0.002303  -0.060886
    14  H   -0.000184   0.000002   0.000000  -0.000001  -0.000020   0.002917
    15  H    0.000002  -0.000184  -0.000001   0.000000  -0.036460   0.002917
    16  H   -0.036352   0.000016  -0.000101   0.004229   0.000002  -0.000001
    17  Bq   0.000000   0.000000   0.000000   0.000000   0.000000   0.000000
    18  Bq   0.000000   0.000000   0.000000   0.000000   0.000000   0.000000
    19  Bq   0.000000   0.000000   0.000000   0.000000   0.000000   0.000000
    20  Bq   0.000000   0.000000   0.000000   0.000000   0.000000   0.000000
    21  Bq   0.000000   0.000000   0.000000   0.000000   0.000000   0.000000
    22  Bq   0.000000   0.000000   0.000000   0.000000   0.000000   0.000000
    23  H   -0.044290   0.000760  -0.000066   0.000979   0.001118   0.001143
    24  H    0.000760  -0.044295   0.000978  -0.000066  -0.057328   0.001143
    25  H    0.555383  -0.000082   0.001010  -0.052334  -0.000006  -0.000015
    26  H   -0.000082   0.555374  -0.052328   0.001010   0.001510  -0.000015
    27  H    0.001010  -0.052328   0.546045  -0.036429  -0.000010   0.000000
    28  H   -0.052334   0.001010  -0.036429   0.546037   0.000001   0.000000
    29  H   -0.000006   0.001510  -0.000010   0.000001   0.544603  -0.033705
    30  H   -0.000015  -0.000015   0.000000   0.000000  -0.033705   0.661625
    31  H    0.001509  -0.000006   0.000001  -0.000010   0.000431  -0.033707
    32  H    0.000000   0.000000   0.000000   0.000000   0.000286  -0.058895
              31         32
     1  C    0.004836   0.000002
     2  C   -0.077750  -0.000088
     3  C    0.002987  -0.000088
     4  C   -0.000037   0.000002
     5  C   -0.000013   0.000000
     6  C   -0.000103   0.000000
     7  H    0.000004   0.000000
     8  H    0.000000   0.000000
     9  H    0.000002   0.000000
    10  C    0.002303   0.003891
    11  C   -0.046458  -0.084132
    12  O    0.001802   0.303556
    13  C    0.424192   0.003891
    14  H   -0.036457  -0.000055
    15  H   -0.000020  -0.000055
    16  H   -0.000253   0.000000
    17  Bq   0.000000   0.000000
    18  Bq   0.000000   0.000000
    19  Bq   0.000000   0.000000
    20  Bq   0.000000   0.000000
    21  Bq   0.000000   0.000000
    22  Bq   0.000000   0.000000
    23  H   -0.057325   0.000025
    24  H    0.001117   0.000025
    25  H    0.001509   0.000000
    26  H   -0.000006   0.000000
    27  H    0.000001   0.000000
    28  H   -0.000010   0.000000
    29  H    0.000431   0.000286
    30  H   -0.033707  -0.058895
    31  H    0.544586   0.000286
    32  H    0.000286   0.389255
 Mulliken charges:
               1
     1  C   -0.567588
     2  C   -0.269808
     3  C   -0.270013
     4  C   -0.567487
     5  C   -0.553953
     6  C   -0.553877
     7  H    0.285179
     8  H    0.285191
     9  H    0.290391
    10  C   -0.633812
    11  C    0.053373
    12  O   -0.518322
    13  C   -0.633857
    14  H    0.292273
    15  H    0.292272
    16  H    0.290423
    17  Bq   0.000000
    18  Bq   0.000000
    19  Bq   0.000000
    20  Bq   0.000000
    21  Bq   0.000000
    22  Bq   0.000000
    23  H    0.262170
    24  H    0.262231
    25  H    0.269480
    26  H    0.269483
    27  H    0.271845
    28  H    0.271856
    29  H    0.268069
    30  H    0.194303
    31  H    0.268081
    32  H    0.442098
 Sum of Mulliken charges =   0.00000
 Mulliken charges with hydrogens summed into heavy atoms:
               1
     1  C   -0.007685
     2  C   -0.269808
     3  C   -0.270013
     4  C   -0.007613
     5  C    0.003082
     6  C    0.003159
    10  C   -0.073471
    11  C    0.247675
    12  O   -0.076224
    13  C   -0.073503
    17  Bq   0.000000
    18  Bq   0.000000
    19  Bq   0.000000
    20  Bq   0.000000
    21  Bq   0.000000
    22  Bq   0.524401
 N-N= 6.124367264269D+02 E-N=-2.216179004776D+03  KE= 4.219710403730D+02
 Orbital energies and kinetic energies (alpha):
                                 1                 2
   1         O               -18.494268         28.515605
   2         O                -9.856650         15.456852
   3         O                -9.856504         15.470619
   4         O                -9.854874         15.473933
   5         O                -9.853359         15.526348
   6         O                -9.851282         15.473897
   7         O                -9.851260         15.475778
   8         O                -9.848869         15.466879
   9         O                -9.847143         15.526582
  10         O                -9.837845         15.501797
  11         O                -1.186692          2.274594
  12         O                -1.063949          1.329009
  13         O                -1.001611          1.389759
  14         O                -0.976554          1.455272
  15         O                -0.908686          1.533394
  16         O                -0.866256          1.500143
  17         O                -0.769623          1.544065
  18         O                -0.760035          1.458146
  19         O                -0.713661          1.316469
  20         O                -0.679325          1.158510
  21         O                -0.660504          1.091263
  22         O                -0.650636          1.468250
  23         O                -0.646982          1.451835
  24         O                -0.611116          1.284308
  25         O                -0.587083          1.199605
  26         O                -0.582743          1.125293
  27         O                -0.578280          1.250296
  28         O                -0.546356          1.348263
  29         O                -0.543946          1.330577
  30         O                -0.537628          1.779652
  31         O                -0.531786          1.389774
  32         O                -0.505990          1.258388
  33         O                -0.475332          1.449416
  34         O                -0.448803          1.515150
  35         O                -0.379773          1.753327
  36         O                -0.376614          1.551162
  37         O                -0.354442          2.111093
  38         O                -0.307480          2.043280
  39         O                -0.288968          1.736936
  40         V                -0.028285          1.873022
  41         V                 0.017494          1.962208
  42         V                 0.032798          2.423422
  43         V                 0.063474          2.749617
  44         V                 0.069777          2.165232
  45         V                 0.099482          2.804797
  46         V                 0.100147          1.935350
  47         V                 0.143671          2.322026
  48         V                 0.150461          2.399217
  49         V                 0.151641          2.939576
  50         V                 0.154676          2.512760
  51         V                 0.161569          2.594814
  52         V                 0.207003          2.659436
  53         V                 0.248570          2.792518
  54         V                 0.276435          2.820626
  55         V                 0.295654          2.815105
  56         V                 0.319353          2.863582
  57         V                 0.338188          2.894743
  58         V                 0.362256          3.069642
  59         V                 0.399542          3.068395
  60         V                 0.415936          3.236230
  61         V                 0.459401          3.135693
  62         V                 0.514430          3.779985
  63         V                 0.564117          3.680095
  64         V                 0.596581          3.761494
  65         V                 0.649235          3.606367
  66         V                 0.701101          3.704743
 Total kinetic energy from orbitals= 4.219710403730D+02

 This type of calculation cannot be archived.


 WE TEND TO MEET ANY NEW SITUATION BY REORGANIZING. IT CAN BE A
 WONDERFUL METHOD FOR CREATING THE ILLUSION OF PROGRESS WHILE PRODUCING
 CONFUSION, INEFFICIENCY, AND DEMORALIZATION.
     -- PETRONIUS ARBITER, 210 B.C.
 Job cpu time:       0 days  0 hours  0 minutes  0.8 seconds.
 File lengths (MBytes):  RWF=      5 Int=      0 D2E=      0 Chk=      1 Scr=      1
 Normal termination of Gaussian 09 at Tue Nov 11 01:16:56 2014.
