 Entering Gaussian System, Link 0=/usr/local/g09/g09
 Input=/home/anuja/input/phenalene-x-sigma-center1.in
 Output=/home/anuja/output/phenalene-x-sigma-center1.log
 Initial command:
 /usr/local/g09-D.01/g09/l1.exe /gtmp/Gau-5038.inp -scrdir=/gtmp/
 Entering Link 1 = /usr/local/g09-D.01/g09/l1.exe PID=      5040.
  
 Copyright (c) 1988,1990,1992,1993,1995,1998,2003,2009,2013,
            Gaussian, Inc.  All Rights Reserved.
  
 This is part of the Gaussian(R) 09 program.  It is based on
 the Gaussian(R) 03 system (copyright 2003, Gaussian, Inc.),
 the Gaussian(R) 98 system (copyright 1998, Gaussian, Inc.),
 the Gaussian(R) 94 system (copyright 1995, Gaussian, Inc.),
 the Gaussian 92(TM) system (copyright 1992, Gaussian, Inc.),
 the Gaussian 90(TM) system (copyright 1990, Gaussian, Inc.),
 the Gaussian 88(TM) system (copyright 1988, Gaussian, Inc.),
 the Gaussian 86(TM) system (copyright 1986, Carnegie Mellon
 University), and the Gaussian 82(TM) system (copyright 1983,
 Carnegie Mellon University). Gaussian is a federally registered
 trademark of Gaussian, Inc.
  
 This software contains proprietary and confidential information,
 including trade secrets, belonging to Gaussian, Inc.
  
 This software is provided under written license and may be
 used, copied, transmitted, or stored only in accord with that
 written license.
  
 The following legend is applicable only to US Government
 contracts under FAR:
  
                    RESTRICTED RIGHTS LEGEND
  
 Use, reproduction and disclosure by the US Government is
 subject to restrictions as set forth in subparagraphs (a)
 and (c) of the Commercial Computer Software - Restricted
 Rights clause in FAR 52.227-19.
  
 Gaussian, Inc.
 340 Quinnipiac St., Bldg. 40, Wallingford CT 06492
  
  
 ---------------------------------------------------------------
 Warning -- This program may not be used in any manner that
 competes with the business of Gaussian, Inc. or will provide
 assistance to any competitor of Gaussian, Inc.  The licensee
 of this program is prohibited from giving any competitor of
 Gaussian, Inc. access to this program.  By using this program,
 the user acknowledges that Gaussian, Inc. is engaged in the
 business of creating and licensing software in the field of
 computational chemistry and represents and warrants to the
 licensee that it is not a competitor of Gaussian, Inc. and that
 it will not use this program in any manner prohibited above.
 ---------------------------------------------------------------
  

 Cite this work as:
 Gaussian 09, Revision D.01,
 M. J. Frisch, G. W. Trucks, H. B. Schlegel, G. E. Scuseria, 
 M. A. Robb, J. R. Cheeseman, G. Scalmani, V. Barone, B. Mennucci, 
 G. A. Petersson, H. Nakatsuji, M. Caricato, X. Li, H. P. Hratchian, 
 A. F. Izmaylov, J. Bloino, G. Zheng, J. L. Sonnenberg, M. Hada, 
 M. Ehara, K. Toyota, R. Fukuda, J. Hasegawa, M. Ishida, T. Nakajima, 
 Y. Honda, O. Kitao, H. Nakai, T. Vreven, J. A. Montgomery, Jr., 
 J. E. Peralta, F. Ogliaro, M. Bearpark, J. J. Heyd, E. Brothers, 
 K. N. Kudin, V. N. Staroverov, T. Keith, R. Kobayashi, J. Normand, 
 K. Raghavachari, A. Rendell, J. C. Burant, S. S. Iyengar, J. Tomasi, 
 M. Cossi, N. Rega, J. M. Millam, M. Klene, J. E. Knox, J. B. Cross, 
 V. Bakken, C. Adamo, J. Jaramillo, R. Gomperts, R. E. Stratmann, 
 O. Yazyev, A. J. Austin, R. Cammi, C. Pomelli, J. W. Ochterski, 
 R. L. Martin, K. Morokuma, V. G. Zakrzewski, G. A. Voth, 
 P. Salvador, J. J. Dannenberg, S. Dapprich, A. D. Daniels, 
 O. Farkas, J. B. Foresman, J. V. Ortiz, J. Cioslowski, 
 and D. J. Fox, Gaussian, Inc., Wallingford CT, 2013.
 
 ******************************************
 Gaussian 09:  EM64L-G09RevD.01 24-Apr-2013
                 4-May-2014 
 ******************************************
 %NPROC=6
 Will use up to    6 processors via shared memory.
 %MEM=6024MB
 ----------------------------------------------------
 # B3LYP/6-311+G* NMR=GIAO POP=FULL SCF(MAXCYCLE=512)
 ----------------------------------------------------
 1/38=1/1;
 2/12=2,17=6,18=5,40=1/2;
 3/5=4,6=6,7=11,11=2,16=1,25=1,30=1,74=-5/1,2,8,3;
 4//1;
 5/5=2,7=512,38=5/2;
 8/6=1,10=90,11=11/1;
 10/13=100,45=16/2;
 6/7=3,28=1/1;
 99/9=1/99;
 -------------------------------------------------------------
 -------------------------------------------------- # Center 1
 -------------------------------------------------------------
 Symbolic Z-matrix:
 Charge =  0 Multiplicity = 1
 6                    -2.44218  -0.02117   0. 
 6                    -2.44218  -1.41222   0. 
 6                    -1.23667  -2.10618   0. 
 1                    -1.24024  -3.19153   0. 
 6                     0.00077  -1.42007   0. 
 6                    -0.0001   -0.00006   0. 
 6                    -1.23029   0.70917   0. 
 6                    -1.20557   2.12386   0. 
 6                    -0.00173   2.82086   0. 
 6                     1.20295   2.12547   0. 
 6                     1.22942   0.71084   0. 
 6                     2.44229  -0.01764   0. 
 6                     2.44394  -1.40866   0. 
 6                     1.23924  -2.10428   0. 
 1                     1.24439  -3.1896    0. 
 1                     3.38234  -1.94986   0. 
 1                     3.38372   0.5223    0. 
 1                     2.1402    2.67269   0. 
 1                    -0.00238   3.90415   0. 
 1                    -2.14363   2.66972   0. 
 1                    -3.37992  -1.95451   0. 
 1                    -3.38467   0.51701   0. 
 1                     1.22942   0.71084  -1. 
 1                     0.00077  -1.42007  -1. 
 1                    -0.0001   -0.00006  -1. 
 1                    -1.23029   0.70917  -1. 
 1                    -2.51807   0.02168  -0.9962 
 1                    -2.51763  -1.45585  -0.99619 
 1                    -1.23739  -2.19333  -0.99619 
 1                     2.51812   0.02532  -0.9962 
 1                     2.51945  -1.45218  -0.99619 
 1                     1.24007  -2.19143  -0.99619 
 1                    -1.28069   2.16806  -0.9962 
 1                    -0.00178   2.90802  -0.9962 
 1                     1.27801   2.16977  -0.9962 
 bq                   -2.44218  -0.02117   1.7 
 bq                   -2.34218  -0.0203    1.7 
 bq                   -2.24219  -0.01944   1.7 
 bq                   -2.14219  -0.01857   1.7 
 bq                   -2.04219  -0.0177    1.7 
 bq                   -1.9422   -0.01684   1.7 
 bq                   -1.8422   -0.01597   1.7 
 bq                   -1.74221  -0.0151    1.7 
 bq                   -1.64221  -0.01424   1.7 
 bq                   -1.54221  -0.01337   1.7 
 bq                   -1.44222  -0.0125    1.7 
 bq                   -1.34222  -0.01163   1.7 
 bq                   -1.24222  -0.01077   1.7 
 bq                   -1.14223  -0.0099    1.7 
 bq                   -1.04223  -0.00903   1.7 
 bq                   -0.94224  -0.00817   1.7 
 bq                   -0.84224  -0.0073    1.7 
 bq                   -0.74224  -0.00643   1.7 
 bq                   -0.64225  -0.00557   1.7 
 bq                   -0.54225  -0.0047    1.7 
 bq                   -0.44225  -0.00383   1.7 
 bq                   -0.34226  -0.00297   1.7 
 bq                   -0.24226  -0.0021    1.7 
 bq                   -0.14227  -0.00123   1.7 
 bq                    0.        0.        1.7 
 bq                    0.1      -0.00072   1.7 
 bq                    0.19999  -0.00144   1.7 
 bq                    0.29999  -0.00217   1.7 
 bq                    0.39999  -0.00289   1.7 
 bq                    0.49999  -0.00361   1.7 
 bq                    0.59998  -0.00433   1.7 
 bq                    0.69998  -0.00506   1.7 
 bq                    0.79998  -0.00578   1.7 
 bq                    0.89998  -0.0065    1.7 
 bq                    0.99997  -0.00722   1.7 
 bq                    1.09997  -0.00794   1.7 
 bq                    1.19997  -0.00867   1.7 
 bq                    1.29997  -0.00939   1.7 
 bq                    1.39996  -0.01011   1.7 
 bq                    1.49996  -0.01083   1.7 
 bq                    1.59996  -0.01156   1.7 
 bq                    1.69996  -0.01228   1.7 
 bq                    1.79995  -0.013     1.7 
 bq                    1.89995  -0.01372   1.7 
 bq                    1.99995  -0.01444   1.7 
 bq                    2.09995  -0.01517   1.7 
 bq                    2.19994  -0.01589   1.7 
 bq                    2.29994  -0.01661   1.7 
 
 Symmetry turned off:
 Cannot cope with ghost atoms or with translation vectors.
 Stoichiometry    C13H22
 Framework group  C1[X(C13H22)]
 NUMDOF-- NAT=    35 NAtoms=    83
 Deg. of freedom     0
 Full point group                 C1      NOp   1
                          Input orientation:                          
 ---------------------------------------------------------------------
 Center     Atomic      Atomic             Coordinates (Angstroms)
 Number     Number       Type             X           Y           Z
 ---------------------------------------------------------------------
      1          6           0       -2.442180   -0.021170    0.000000
      2          6           0       -2.442180   -1.412220    0.000000
      3          6           0       -1.236670   -2.106180    0.000000
      4          1           0       -1.240240   -3.191530    0.000000
      5          6           0        0.000770   -1.420070    0.000000
      6          6           0       -0.000100   -0.000060    0.000000
      7          6           0       -1.230290    0.709170    0.000000
      8          6           0       -1.205570    2.123860    0.000000
      9          6           0       -0.001730    2.820860    0.000000
     10          6           0        1.202950    2.125470    0.000000
     11          6           0        1.229420    0.710840    0.000000
     12          6           0        2.442290   -0.017640    0.000000
     13          6           0        2.443940   -1.408660    0.000000
     14          6           0        1.239240   -2.104280    0.000000
     15          1           0        1.244390   -3.189600    0.000000
     16          1           0        3.382340   -1.949860    0.000000
     17          1           0        3.383720    0.522300    0.000000
     18          1           0        2.140200    2.672690    0.000000
     19          1           0       -0.002380    3.904150    0.000000
     20          1           0       -2.143630    2.669720    0.000000
     21          1           0       -3.379920   -1.954510    0.000000
     22          1           0       -3.384670    0.517010    0.000000
     23          1           0        1.229420    0.710840   -1.000000
     24          1           0        0.000770   -1.420070   -1.000000
     25          1           0       -0.000100   -0.000060   -1.000000
     26          1           0       -1.230290    0.709170   -1.000000
     27          1           0       -2.518070    0.021680   -0.996200
     28          1           0       -2.517630   -1.455850   -0.996190
     29          1           0       -1.237390   -2.193330   -0.996190
     30          1           0        2.518120    0.025320   -0.996200
     31          1           0        2.519450   -1.452180   -0.996190
     32          1           0        1.240070   -2.191430   -0.996190
     33          1           0       -1.280690    2.168060   -0.996200
     34          1           0       -0.001780    2.908020   -0.996200
     35          1           0        1.278010    2.169770   -0.996200
     36          0           0       -2.442180   -0.021170    1.700000
     37          0           0       -2.342180   -0.020300    1.700000
     38          0           0       -2.242190   -0.019440    1.700000
     39          0           0       -2.142190   -0.018570    1.700000
     40          0           0       -2.042190   -0.017700    1.700000
     41          0           0       -1.942200   -0.016840    1.700000
     42          0           0       -1.842200   -0.015970    1.700000
     43          0           0       -1.742210   -0.015100    1.700000
     44          0           0       -1.642210   -0.014240    1.700000
     45          0           0       -1.542210   -0.013370    1.700000
     46          0           0       -1.442220   -0.012500    1.700000
     47          0           0       -1.342220   -0.011630    1.700000
     48          0           0       -1.242220   -0.010770    1.700000
     49          0           0       -1.142230   -0.009900    1.700000
     50          0           0       -1.042230   -0.009030    1.700000
     51          0           0       -0.942240   -0.008170    1.700000
     52          0           0       -0.842240   -0.007300    1.700000
     53          0           0       -0.742240   -0.006430    1.700000
     54          0           0       -0.642250   -0.005570    1.700000
     55          0           0       -0.542250   -0.004700    1.700000
     56          0           0       -0.442250   -0.003830    1.700000
     57          0           0       -0.342260   -0.002970    1.700000
     58          0           0       -0.242260   -0.002100    1.700000
     59          0           0       -0.142270   -0.001230    1.700000
     60          0           0        0.000000    0.000000    1.700000
     61          0           0        0.100000   -0.000720    1.700000
     62          0           0        0.199990   -0.001440    1.700000
     63          0           0        0.299990   -0.002170    1.700000
     64          0           0        0.399990   -0.002890    1.700000
     65          0           0        0.499990   -0.003610    1.700000
     66          0           0        0.599980   -0.004330    1.700000
     67          0           0        0.699980   -0.005060    1.700000
     68          0           0        0.799980   -0.005780    1.700000
     69          0           0        0.899980   -0.006500    1.700000
     70          0           0        0.999970   -0.007220    1.700000
     71          0           0        1.099970   -0.007940    1.700000
     72          0           0        1.199970   -0.008670    1.700000
     73          0           0        1.299970   -0.009390    1.700000
     74          0           0        1.399960   -0.010110    1.700000
     75          0           0        1.499960   -0.010830    1.700000
     76          0           0        1.599960   -0.011560    1.700000
     77          0           0        1.699960   -0.012280    1.700000
     78          0           0        1.799950   -0.013000    1.700000
     79          0           0        1.899950   -0.013720    1.700000
     80          0           0        1.999950   -0.014440    1.700000
     81          0           0        2.099950   -0.015170    1.700000
     82          0           0        2.199940   -0.015890    1.700000
     83          0           0        2.299940   -0.016610    1.700000
 ---------------------------------------------------------------------
 Rotational constants (GHZ):      1.0112111      1.0109870      0.5180644
 Standard basis: 6-311+G(d) (5D, 7F)
 Warning:  center  36 has no basis functions!
 Warning:  center  37 has no basis functions!
 Warning:  center  38 has no basis functions!
 Warning:  center  39 has no basis functions!
 Warning:  center  40 has no basis functions!
 Warning:  center  41 has no basis functions!
 Warning:  center  42 has no basis functions!
 Warning:  center  43 has no basis functions!
 Warning:  center  44 has no basis functions!
 Warning:  center  45 has no basis functions!
 Warning:  center  46 has no basis functions!
 Warning:  center  47 has no basis functions!
 Warning:  center  48 has no basis functions!
 Warning:  center  49 has no basis functions!
 Warning:  center  50 has no basis functions!
 Warning:  center  51 has no basis functions!
 Warning:  center  52 has no basis functions!
 Warning:  center  53 has no basis functions!
 Warning:  center  54 has no basis functions!
 Warning:  center  55 has no basis functions!
 Warning:  center  56 has no basis functions!
 Warning:  center  57 has no basis functions!
 Warning:  center  58 has no basis functions!
 Warning:  center  59 has no basis functions!
 Warning:  center  60 has no basis functions!
 Warning:  center  61 has no basis functions!
 Warning:  center  62 has no basis functions!
 Warning:  center  63 has no basis functions!
 Warning:  center  64 has no basis functions!
 Warning:  center  65 has no basis functions!
 Warning:  center  66 has no basis functions!
 Warning:  center  67 has no basis functions!
 Warning:  center  68 has no basis functions!
 Warning:  center  69 has no basis functions!
 Warning:  center  70 has no basis functions!
 Warning:  center  71 has no basis functions!
 Warning:  center  72 has no basis functions!
 Warning:  center  73 has no basis functions!
 Warning:  center  74 has no basis functions!
 Warning:  center  75 has no basis functions!
 Warning:  center  76 has no basis functions!
 Warning:  center  77 has no basis functions!
 Warning:  center  78 has no basis functions!
 Warning:  center  79 has no basis functions!
 Warning:  center  80 has no basis functions!
 Warning:  center  81 has no basis functions!
 Warning:  center  82 has no basis functions!
 Warning:  center  83 has no basis functions!
   352 basis functions,   578 primitive gaussians,   365 cartesian basis functions
    50 alpha electrons       50 beta electrons
       nuclear repulsion energy       943.7991053338 Hartrees.
 NAtoms=   83 NActive=   83 NUniq=   83 SFac= 1.00D+00 NAtFMM=   60 NAOKFM=T Big=T
 Integral buffers will be    131072 words long.
 Raffenetti 2 integral format.
 Two-electron integral symmetry is turned off.
 One-electron integrals computed using PRISM.
 NBasis=   352 RedAO= T EigKep=  1.05D-06  NBF=   352
 NBsUse=   347 1.00D-06 EigRej=  8.03D-07 NBFU=   347
 ExpMin= 4.38D-02 ExpMax= 4.56D+03 ExpMxC= 6.82D+02 IAcc=2 IRadAn=         4 AccDes= 0.00D+00
 Harris functional with IExCor=  402 and IRadAn=       4 diagonalized for initial guess.
 HarFok:  IExCor=  402 AccDes= 0.00D+00 IRadAn=         4 IDoV= 1 UseB2=F ITyADJ=14
 ICtDFT=  3500011 ScaDFX=  1.000000  1.000000  1.000000  1.000000
 FoFCou: FMM=F IPFlag=           0 FMFlag=      100000 FMFlg1=        2001
         NFxFlg=           0 DoJE=T BraDBF=F KetDBF=T FulRan=T
         wScrn=  0.000000 ICntrl=     500 IOpCl=  0 I1Cent=   200000004 NGrid=           0
         NMat0=    1 NMatS0=      1 NMatT0=    0 NMatD0=    1 NMtDS0=    0 NMtDT0=    0
 Symmetry not used in FoFCou.
 Requested convergence on RMS density matrix=1.00D-08 within 512 cycles.
 Requested convergence on MAX density matrix=1.00D-06.
 Requested convergence on             energy=1.00D-06.
 No special actions if energy rises.
 SCF Done:  E(RB3LYP) =  -507.519079420     A.U. after   17 cycles
            NFock= 17  Conv=0.53D-08     -V/T= 1.9884
 DoSCS=F DFT=T ScalE2(SS,OS)=  1.000000  1.000000
 Range of M.O.s used for correlation:     1   347
 NBasis=   352 NAE=    50 NBE=    50 NFC=     0 NFV=     0
 NROrb=    347 NOA=    50 NOB=    50 NVA=   297 NVB=   297

 **** Warning!!: The largest alpha MO coefficient is  0.24265497D+03


 **** Warning!!: The smallest alpha delta epsilon is  0.60523812D-01

          Differentiating once with respect to magnetic field using GIAOs.
          Electric field/nuclear overlap derivatives assumed to be zero.
 FoFCou: FMM=F IPFlag=           0 FMFlag=      100000 FMFlg1=        2001
         NFxFlg=           0 DoJE=F BraDBF=F KetDBF=T FulRan=T
         wScrn=  0.000000 ICntrl=    6100 IOpCl=  0 I1Cent=           7 NGrid=          83
         NMat0=    1 NMatS0=      1 NMatT0=    0 NMatD0=    1 NMtDS0=    0 NMtDT0=    0
 Symmetry not used in FoFCou.
 FoFJK:  IHMeth= 1 ICntrl=    6127 DoSepK=F KAlg= 0 I1Cent=   0 FoldK=F
 IRaf=         1 NMat=   1 IRICut=       1 DoRegI=T DoRafI=F ISym2E= 0.
          There are     3 degrees of freedom in the 1st order CPHF.  IDoFFX=0 NUNeed=     3.
      3 vectors produced by pass  0 Test12= 4.95D-13 3.33D-08 XBig12= 2.20D+03 2.19D+01.
 AX will form     3 AO Fock derivatives at one time.
      3 vectors produced by pass  1 Test12= 4.95D-13 3.33D-08 XBig12= 4.50D+00 7.10D-01.
      3 vectors produced by pass  2 Test12= 4.95D-13 3.33D-08 XBig12= 1.38D-02 3.23D-02.
      3 vectors produced by pass  3 Test12= 4.95D-13 3.33D-08 XBig12= 2.64D-05 2.09D-03.
      3 vectors produced by pass  4 Test12= 4.95D-13 3.33D-08 XBig12= 1.82D-07 2.24D-04.
      3 vectors produced by pass  5 Test12= 4.95D-13 3.33D-08 XBig12= 5.25D-09 3.90D-05.
      3 vectors produced by pass  6 Test12= 4.95D-13 3.33D-08 XBig12= 1.94D-11 1.24D-06.
      1 vectors produced by pass  7 Test12= 4.95D-13 3.33D-08 XBig12= 6.06D-14 4.42D-08.
 InvSVY:  IOpt=1 It=  1 EMax= 7.11D-15
 Solved reduced A of dimension    22 with     3 vectors.
 Calculating GIAO nuclear magnetic shielding tensors.
 SCF GIAO Magnetic shielding tensor (ppm):
      1  C    Isotropic =   195.0353   Anisotropy =    51.8019
   XX=   217.4699   YX=     2.9933   ZX=    -2.9508
   XY=    12.2829   YY=   224.7371   ZY=     2.8895
   XZ=    -2.5570   YZ=     2.5567   ZZ=   142.8990
   Eigenvalues:   142.6865   212.8495   229.5699
      2  C    Isotropic =   205.7657   Anisotropy =    35.0156
   XX=   225.7438   YX=    -1.9239   ZX=     3.3104
   XY=    -2.2733   YY=   227.8008   ZY=     2.0903
   XZ=     6.1364   YZ=     3.6727   ZZ=   163.7525
   Eigenvalues:   163.2521   224.9356   229.1094
      3  C    Isotropic =   195.3588   Anisotropy =    51.0429
   XX=   229.3589   YX=     5.0926   ZX=     0.8008
   XY=    -3.9592   YY=   213.0222   ZY=    -3.9816
   XZ=     1.1611   YZ=    -2.4654   ZZ=   143.6954
   Eigenvalues:   143.5340   213.1550   229.3874
      4  H    Isotropic =    31.7151   Anisotropy =     9.6283
   XX=    32.1351   YX=     0.8924   ZX=    -0.3625
   XY=     1.0619   YY=    37.9747   ZY=     0.6618
   XZ=     0.6790   YZ=    -0.7833   ZZ=    25.0356
   Eigenvalues:    25.0315    31.9799    38.1340
      5  C    Isotropic =   215.7371   Anisotropy =    27.9468
   XX=   231.2736   YX=    -0.0123   ZX=    -0.0062
   XY=    -0.0075   YY=   234.2645   ZY=     0.9448
   XZ=    -0.0153   YZ=     3.7316   ZZ=   181.6731
   Eigenvalues:   181.5694   231.2736   234.3683
      6  C    Isotropic =   209.5748   Anisotropy =    22.5144
   XX=   224.3587   YX=    -0.0060   ZX=     0.0185
   XY=     0.0041   YY=   224.5842   ZY=     0.1121
   XZ=     0.0017   YZ=     0.0882   ZZ=   179.7815
   Eigenvalues:   179.7813   224.3587   224.5844
      7  C    Isotropic =   215.9634   Anisotropy =    26.3877
   XX=   232.7812   YX=    -1.0393   ZX=     0.1372
   XY=    -1.1458   YY=   231.8038   ZY=    -0.0547
   XZ=     3.0423   YZ=    -1.7293   ZZ=   183.3053
   Eigenvalues:   183.2391   231.0959   233.5552
      8  C    Isotropic =   194.9236   Anisotropy =    51.9025
   XX=   216.5730   YX=    11.3605   ZX=    -3.7736
   XY=     2.5671   YY=   225.7687   ZY=     1.0677
   XZ=    -3.0174   YZ=     0.5143   ZZ=   142.4290
   Eigenvalues:   142.2590   212.9865   229.5253
      9  C    Isotropic =   205.5673   Anisotropy =    35.1045
   XX=   228.9703   YX=     0.0035   ZX=    -0.0028
   XY=    -0.0039   YY=   224.5893   ZY=    -3.9759
   XZ=     0.0100   YZ=    -6.9878   ZZ=   163.1424
   Eigenvalues:   162.6572   225.0745   228.9703
     10  C    Isotropic =   194.9109   Anisotropy =    51.9196
   XX=   216.5990   YX=   -11.3904   ZX=     3.7830
   XY=    -2.5703   YY=   225.7416   ZY=     1.0757
   XZ=     3.0384   YZ=     0.5179   ZZ=   142.3923
   Eigenvalues:   142.2208   212.9879   229.5240
     11  C    Isotropic =   215.9821   Anisotropy =    26.3520
   XX=   232.7670   YX=     1.0396   ZX=    -0.1745
   XY=     1.1416   YY=   231.8195   ZY=    -0.0658
   XZ=    -3.0523   YZ=    -1.7419   ZZ=   183.3598
   Eigenvalues:   183.2917   231.1046   233.5501
     12  C    Isotropic =   195.0289   Anisotropy =    51.8267
   XX=   217.5084   YX=    -3.0320   ZX=     2.9636
   XY=   -12.3145   YY=   224.6917   ZY=     2.8929
   XZ=     2.5573   YZ=     2.5581   ZZ=   142.8867
   Eigenvalues:   142.6735   212.8333   229.5801
     13  C    Isotropic =   205.7683   Anisotropy =    35.0007
   XX=   225.7572   YX=     1.9078   ZX=    -3.3199
   XY=     2.2755   YY=   227.7939   ZY=     2.0849
   XZ=    -6.1625   YZ=     3.6655   ZZ=   163.7537
   Eigenvalues:   163.2513   224.9515   229.1021
     14  C    Isotropic =   195.3616   Anisotropy =    51.0337
   XX=   229.3576   YX=    -5.0542   ZX=    -0.7843
   XY=     3.9788   YY=   213.0234   ZY=    -3.9723
   XZ=    -1.1629   YZ=    -2.4445   ZZ=   143.7038
   Eigenvalues:   143.5440   213.1567   229.3841
     15  H    Isotropic =    31.7162   Anisotropy =     9.6290
   XX=    32.1400   YX=    -0.9002   ZX=     0.3605
   XY=    -1.0697   YY=    37.9737   ZY=     0.6624
   XZ=    -0.6747   YZ=    -0.7815   ZZ=    25.0350
   Eigenvalues:    25.0310    31.9821    38.1356
     16  H    Isotropic =    31.0432   Anisotropy =    11.0629
   XX=    36.6640   YX=    -3.0779   ZX=    -0.3517
   XY=    -3.0347   YY=    33.0802   ZY=     0.2342
   XZ=     0.7388   YZ=    -0.4810   ZZ=    23.3854
   Eigenvalues:    23.3819    31.3293    38.4185
     17  H    Isotropic =    31.6733   Anisotropy =     9.6708
   XX=    37.3763   YX=     1.8888   ZX=    -0.4413
   XY=     2.0960   YY=    32.7476   ZY=    -0.6235
   XZ=     0.8517   YZ=     0.9548   ZZ=    24.8960
   Eigenvalues:    24.8903    32.0091    38.1205
     18  H    Isotropic =    31.6833   Anisotropy =     9.5161
   XX=    35.5605   YX=     3.0547   ZX=    -0.7363
   XY=     2.8680   YY=    34.4715   ZY=    -0.0912
   XZ=     1.1301   YZ=    -0.1719   ZZ=    25.0179
   Eigenvalues:    25.0102    32.0124    38.0273
     19  H    Isotropic =    31.1115   Anisotropy =    10.9963
   XX=    31.3370   YX=    -0.0052   ZX=     0.0002
   XY=    -0.0029   YY=    38.4388   ZY=    -0.4176
   XZ=     0.0000   YZ=     0.8788   ZZ=    23.5588
   Eigenvalues:    23.5552    31.3370    38.4424
     20  H    Isotropic =    31.6828   Anisotropy =     9.5169
   XX=    35.5694   YX=    -3.0522   ZX=     0.7369
   XY=    -2.8669   YY=    34.4632   ZY=    -0.0912
   XZ=    -1.1292   YZ=    -0.1709   ZZ=    25.0159
   Eigenvalues:    25.0082    32.0128    38.0274
     21  H    Isotropic =    31.0437   Anisotropy =    11.0623
   XX=    36.6556   YX=     3.0818   ZX=     0.3508
   XY=     3.0399   YY=    33.0901   ZY=     0.2347
   XZ=    -0.7384   YZ=    -0.4849   ZZ=    23.3854
   Eigenvalues:    23.3819    31.3307    38.4185
     22  H    Isotropic =    31.6713   Anisotropy =     9.6722
   XX=    37.3820   YX=    -1.8766   ZX=     0.4432
   XY=    -2.0919   YY=    32.7409   ZY=    -0.6230
   XZ=    -0.8573   YZ=     0.9546   ZZ=    24.8911
   Eigenvalues:    24.8853    32.0092    38.1195
     23  H    Isotropic =    22.9141   Anisotropy =    13.5562
   XX=    18.7435   YX=     0.4165   ZX=    -2.0549
   XY=     0.4242   YY=    18.2175   ZY=    -1.1884
   XZ=    -0.4831   YZ=    -0.3609   ZZ=    31.7812
   Eigenvalues:    17.9843    18.8064    31.9516
     24  H    Isotropic =    23.0074   Anisotropy =    14.0860
   XX=    17.8755   YX=     0.0023   ZX=    -0.0028
   XY=     0.0056   YY=    18.9654   ZY=     2.4027
   XZ=     0.0009   YZ=     1.0107   ZZ=    32.1812
   Eigenvalues:    17.8755    18.7486    32.3981
     25  H    Isotropic =    23.3280   Anisotropy =    10.3267
   XX=    19.9020   YX=    -0.0029   ZX=     0.0000
   XY=    -0.0020   YY=    19.8697   ZY=     0.0763
   XZ=     0.0000   YZ=    -0.1064   ZZ=    30.2125
   Eigenvalues:    19.8695    19.9022    30.2125
     26  H    Isotropic =    22.9121   Anisotropy =    13.5574
   XX=    18.7418   YX=    -0.4133   ZX=     2.0547
   XY=    -0.4271   YY=    18.2142   ZY=    -1.1846
   XZ=     0.4825   YZ=    -0.3599   ZZ=    31.7804
   Eigenvalues:    17.9815    18.8045    31.9504
     27  H    Isotropic =    26.4507   Anisotropy =    10.5455
   XX=    20.6491   YX=     3.4083   ZX=     5.0003
   XY=     7.0568   YY=    26.8777   ZY=    -1.9353
   XZ=     3.4701   YZ=     0.6285   ZZ=    31.8254
   Eigenvalues:    16.6080    29.2631    33.4811
     28  H    Isotropic =    25.9541   Anisotropy =    10.6500
   XX=    19.4088   YX=    -6.4668   ZX=     5.0542
   XY=    -6.4361   YY=    26.8110   ZY=     2.9558
   XZ=     3.4989   YZ=     2.0423   ZZ=    31.6425
   Eigenvalues:    14.2607    30.5475    33.0541
     29  H    Isotropic =    26.5160   Anisotropy =    10.8229
   XX=    29.8524   YX=     1.7341   ZX=     0.7470
   XY=    -1.8721   YY=    17.6635   ZY=     5.2846
   XZ=     2.4769   YZ=     2.9062   ZZ=    32.0320
   Eigenvalues:    16.5607    29.2560    33.7313
     30  H    Isotropic =    26.4471   Anisotropy =    10.5474
   XX=    20.6625   YX=    -3.4083   ZX=    -4.9947
   XY=    -7.0610   YY=    26.8534   ZY=    -1.9422
   XZ=    -3.4709   YZ=     0.6251   ZZ=    31.8254
   Eigenvalues:    16.6110    29.2516    33.4787
     31  H    Isotropic =    25.9558   Anisotropy =    10.6509
   XX=    19.3903   YX=     6.4585   ZX=    -5.0592
   XY=     6.4293   YY=    26.8325   ZY=     2.9480
   XZ=    -3.5030   YZ=     2.0381   ZZ=    31.6446
   Eigenvalues:    14.2586    30.5524    33.0564
     32  H    Isotropic =    26.5172   Anisotropy =    10.8233
   XX=    29.8567   YX=    -1.7188   ZX=    -0.7532
   XY=     1.8834   YY=    17.6615   ZY=     5.2839
   XZ=    -2.4797   YZ=     2.9021   ZZ=    32.0335
   Eigenvalues:    16.5591    29.2599    33.7327
     33  H    Isotropic =    26.5109   Anisotropy =    10.7902
   XX=    20.7293   YX=     7.1817   ZX=     4.1671
   XY=     3.4801   YY=    26.7684   ZY=    -3.3411
   XZ=     1.3331   YZ=    -3.4601   ZZ=    32.0350
   Eigenvalues:    16.5313    29.2970    33.7044
     34  H    Isotropic =    26.0588   Anisotropy =    10.6908
   XX=    30.5285   YX=     0.0081   ZX=     0.0035
   XY=     0.0079   YY=    15.7563   ZY=    -5.8502
   XZ=     0.0012   YZ=    -3.6496   ZZ=    31.8916
   Eigenvalues:    14.4619    30.5285    33.1860
     35  H    Isotropic =    26.5075   Anisotropy =    10.7920
   XX=    20.7408   YX=    -7.1882   ZX=    -4.1608
   XY=    -3.4804   YY=    26.7489   ZY=    -3.3459
   XZ=    -1.3267   YZ=    -3.4639   ZZ=    32.0329
   Eigenvalues:    16.5325    29.2879    33.7022
     36  Bq   Isotropic =     0.4645   Anisotropy =    10.6201
   XX=    -2.4572   YX=    -0.1054   ZX=    -3.0501
   XY=     0.2733   YY=    -2.6265   ZY=     0.8506
   XZ=    -3.4563   YZ=    -0.1818   ZZ=     6.4771
   Eigenvalues:    -3.5529    -2.5982     7.5445
     37  Bq   Isotropic =     0.4346   Anisotropy =    10.5244
   XX=    -2.5375   YX=     0.0097   ZX=    -2.7475
   XY=     0.4059   YY=    -2.7363   ZY=     0.8609
   XZ=    -3.1417   YZ=    -0.2812   ZZ=     6.5777
   Eigenvalues:    -3.5090    -2.6380     7.4509
     38  Bq   Isotropic =     0.3976   Anisotropy =    10.4021
   XX=    -2.5866   YX=     0.1236   ZX=    -2.4577
   XY=     0.5366   YY=    -2.8416   ZY=     0.8414
   XZ=    -2.8486   YZ=    -0.3998   ZZ=     6.6210
   Eigenvalues:    -3.5087    -2.6309     7.3324
     39  Bq   Isotropic =     0.3577   Anisotropy =    10.2590
   XX=    -2.6082   YX=     0.2304   ZX=    -2.1869
   XY=     0.6576   YY=    -2.9352   ZY=     0.7922
   XZ=    -2.5852   YZ=    -0.5330   ZZ=     6.6163
   Eigenvalues:    -3.5411    -2.5829     7.1970
     40  Bq   Isotropic =     0.3191   Anisotropy =    10.1018
   XX=    -2.6066   YX=     0.3242   ZX=    -1.9400
   XY=     0.7612   YY=    -3.0108   ZY=     0.7152
   XZ=    -2.3570   YZ=    -0.6750   ZZ=     6.5748
   Eigenvalues:    -3.5835    -2.5128     7.0537
     41  Bq   Isotropic =     0.2858   Anisotropy =     9.9381
   XX=    -2.5869   YX=     0.3999   ZX=    -1.7202
   XY=     0.8406   YY=    -3.0640   ZY=     0.6147
   XZ=    -2.1669   YZ=    -0.8190   ZZ=     6.5082
   Eigenvalues:    -3.6155    -2.4384     6.9112
     42  Bq   Isotropic =     0.2605   Anisotropy =     9.7762
   XX=    -2.5540   YX=     0.4536   ZX=    -1.5294
   XY=     0.8907   YY=    -3.0927   ZY=     0.4964
   XZ=    -2.0154   YZ=    -0.9582   ZZ=     6.4283
   Eigenvalues:    -3.6242    -2.3722     6.7780
     43  Bq   Isotropic =     0.2452   Anisotropy =     9.6243
   XX=    -2.5129   YX=     0.4829   ZX=    -1.3681
   XY=     0.9082   YY=    -3.0976   ZY=     0.3673
   XZ=    -1.9008   YZ=    -1.0860   ZZ=     6.3462
   Eigenvalues:    -3.6034    -2.3223     6.6614
     44  Bq   Isotropic =     0.2405   Anisotropy =     9.4904
   XX=    -2.4683   YX=     0.4868   ZX=    -1.2354
   XY=     0.8921   YY=    -3.0821   ZY=     0.2343
   XZ=    -1.8200   YZ=    -1.1963   ZZ=     6.2719
   Eigenvalues:    -3.5521    -2.2938     6.5674
     45  Bq   Isotropic =     0.2464   Anisotropy =     9.3817
   XX=    -2.4246   YX=     0.4661   ZX=    -1.1293
   XY=     0.8438   YY=    -3.0510   ZY=     0.1044
   XZ=    -1.7685   YZ=    -1.2837   ZZ=     6.2147
   Eigenvalues:    -3.4731    -2.2887     6.5009
     46  Bq   Isotropic =     0.2622   Anisotropy =     9.3042
   XX=    -2.3853   YX=     0.4228   ZX=    -1.0465
   XY=     0.7666   YY=    -3.0103   ZY=    -0.0162
   XZ=    -1.7411   YZ=    -1.3437   ZZ=     6.1820
   Eigenvalues:    -3.3721    -2.3065     6.4650
     47  Bq   Isotropic =     0.2873   Anisotropy =     9.2620
   XX=    -2.3531   YX=     0.3605   ZX=    -0.9830
   XY=     0.6656   YY=    -2.9654   ZY=    -0.1221
   XZ=    -1.7312   YZ=    -1.3730   ZZ=     6.1803
   Eigenvalues:    -3.2567    -2.3434     6.4620
     48  Bq   Isotropic =     0.3213   Anisotropy =     9.2574
   XX=    -2.3298   YX=     0.2837   ZX=    -0.9338
   XY=     0.5472   YY=    -2.9206   ZY=    -0.2091
   XZ=    -1.7321   YZ=    -1.3694   ZZ=     6.2143
   Eigenvalues:    -3.1361    -2.3930     6.4929
     49  Bq   Isotropic =     0.3643   Anisotropy =     9.2908
   XX=    -2.3161   YX=     0.1978   ZX=    -0.8934
   XY=     0.4190   YY=    -2.8780   ZY=    -0.2741
   XZ=    -1.7360   YZ=    -1.3319   ZZ=     6.2870
   Eigenvalues:    -3.0206    -2.4447     6.5582
     50  Bq   Isotropic =     0.4168   Anisotropy =     9.3605
   XX=    -2.3114   YX=     0.1087   ZX=    -0.8566
   XY=     0.2885   YY=    -2.8379   ZY=    -0.3154
   XZ=    -1.7348   YZ=    -1.2610   ZZ=     6.3996
   Eigenvalues:    -2.9230    -2.4839     6.6571
     51  Bq   Isotropic =     0.4792   Anisotropy =     9.4629
   XX=    -2.3146   YX=     0.0225   ZX=    -0.8181
   XY=     0.1637   YY=    -2.7987   ZY=    -0.3325
   XZ=    -1.7201   YZ=    -1.1590   ZZ=     6.5507
   Eigenvalues:    -2.8579    -2.4923     6.7877
     52  Bq   Isotropic =     0.5518   Anisotropy =     9.5925
   XX=    -2.3237   YX=    -0.0550   ZX=    -0.7735
   XY=     0.0516   YY=    -2.7575   ZY=    -0.3267
   XZ=    -1.6839   YZ=    -1.0300   ZZ=     6.7365
   Eigenvalues:    -2.8284    -2.4631     6.9467
     53  Bq   Isotropic =     0.6339   Anisotropy =     9.7421
   XX=    -2.3364   YX=    -0.1187   ZX=    -0.7196
   XY=    -0.0415   YY=    -2.7120   ZY=    -0.3005
   XZ=    -1.6184   YZ=    -0.8799   ZZ=     6.9500
   Eigenvalues:    -2.8148    -2.4122     7.1286
     54  Bq   Isotropic =     0.7235   Anisotropy =     9.9033
   XX=    -2.3505   YX=    -0.1643   ZX=    -0.6543
   XY=    -0.1112   YY=    -2.6604   ZY=    -0.2583
   XZ=    -1.5176   YZ=    -0.7167   ZZ=     7.1815
   Eigenvalues:    -2.7956    -2.3595     7.3257
     55  Bq   Isotropic =     0.8171   Anisotropy =    10.0664
   XX=    -2.3641   YX=    -0.1893   ZX=    -0.5767
   XY=    -0.1546   YY=    -2.6033   ZY=    -0.2052
   XZ=    -1.3769   YZ=    -0.5496   ZZ=     7.4188
   Eigenvalues:    -2.7605    -2.3162     7.5281
     56  Bq   Isotropic =     0.9096   Anisotropy =    10.2215
   XX=    -2.3757   YX=    -0.1925   ZX=    -0.4874
   XY=    -0.1712   YY=    -2.5432   ZY=    -0.1476
   XZ=    -1.1948   YZ=    -0.3886   ZZ=     7.6476
   Eigenvalues:    -2.7075    -2.2877     7.7239
     57  Bq   Isotropic =     0.9945   Anisotropy =    10.3588
   XX=    -2.3847   YX=    -0.1745   ZX=    -0.3878
   XY=    -0.1624   YY=    -2.4848   ZY=    -0.0919
   XZ=    -0.9726   YZ=    -0.2444   ZZ=     7.8530
   Eigenvalues:    -2.6399    -2.2770     7.9004
     58  Bq   Isotropic =     1.0653   Anisotropy =    10.4695
   XX=    -2.3909   YX=    -0.1379   ZX=    -0.2800
   XY=    -0.1317   YY=    -2.4339   ZY=    -0.0441
   XZ=    -0.7152   YZ=    -0.1265   ZZ=     8.0206
   Eigenvalues:    -2.5636    -2.2855     8.0450
     59  Bq   Isotropic =     1.1157   Anisotropy =    10.5464
   XX=    -2.3945   YX=    -0.0867   ZX=    -0.1665
   XY=    -0.0840   YY=    -2.3965   ZY=    -0.0094
   XZ=    -0.4304   YZ=    -0.0433   ZZ=     8.1381
   Eigenvalues:    -2.4859    -2.3136     8.1466
     60  Bq   Isotropic =     1.1435   Anisotropy =    10.5879
   XX=    -2.3959   YX=     0.0005   ZX=     0.0001
   XY=     0.0000   YY=    -2.3757   ZY=     0.0108
   XZ=     0.0008   YZ=     0.0044   ZZ=     8.2022
   Eigenvalues:    -2.3959    -2.3757     8.2022
     61  Bq   Isotropic =     1.1298   Anisotropy =    10.5671
   XX=    -2.3954   YX=     0.0629   ZX=     0.1175
   XY=     0.0604   YY=    -2.3855   ZY=     0.0006
   XZ=     0.3060   YZ=    -0.0199   ZZ=     8.1702
   Eigenvalues:    -2.4548    -2.3304     8.1745
     62  Bq   Isotropic =     1.0896   Anisotropy =    10.5060
   XX=    -2.3929   YX=     0.1187   ZX=     0.2328
   XY=     0.1132   YY=    -2.4151   ZY=    -0.0274
   XZ=     0.5993   YZ=    -0.0865   ZZ=     8.0768
   Eigenvalues:    -2.5306    -2.2942     8.0936
     63  Bq   Isotropic =     1.0268   Anisotropy =    10.4086
   XX=    -2.3880   YX=     0.1621   ZX=     0.3434
   XY=     0.1518   YY=    -2.4605   ZY=    -0.0701
   XZ=     0.8694   YZ=    -0.1906   ZZ=     7.9290
   Eigenvalues:    -2.6081    -2.2773     7.9659
     64  Bq   Isotropic =     0.9472   Anisotropy =    10.2814
   XX=    -2.3802   YX=     0.1884   ZX=     0.4469
   XY=     0.1704   YY=    -2.5161   ZY=    -0.1230
   XZ=     1.1073   YZ=    -0.3249   ZZ=     7.7378
   Eigenvalues:    -2.6800    -2.2799     7.8014
     65  Bq   Isotropic =     0.8572   Anisotropy =    10.1325
   XX=    -2.3696   YX=     0.1945   ZX=     0.5409
   XY=     0.1648   YY=    -2.5759   ZY=    -0.1805
   XZ=     1.3068   YZ=    -0.4802   ZZ=     7.5170
   Eigenvalues:    -2.7395    -2.3012     7.6122
     66  Bq   Isotropic =     0.7634   Anisotropy =     9.9716
   XX=    -2.3566   YX=     0.1788   ZX=     0.6236
   XY=     0.1327   YY=    -2.6347   ZY=    -0.2361
   XZ=     1.4651   YZ=    -0.6463   ZZ=     7.2815
   Eigenvalues:    -2.7821    -2.3387     7.4111
     67  Bq   Isotropic =     0.6716   Anisotropy =     9.8084
   XX=    -2.3424   YX=     0.1418   ZX=     0.6943
   XY=     0.0739   YY=    -2.6887   ZY=    -0.2836
   XZ=     1.5826   YZ=    -0.8129   ZZ=     7.0459
   Eigenvalues:    -2.8072    -2.3885     7.2105
     68  Bq   Isotropic =     0.5860   Anisotropy =     9.6528
   XX=    -2.3286   YX=     0.0856   ZX=     0.7529
   XY=    -0.0099   YY=    -2.7369   ZY=    -0.3170
   XZ=     1.6625   YZ=    -0.9701   ZZ=     6.8234
   Eigenvalues:    -2.8209    -2.4424     7.0212
     69  Bq   Isotropic =     0.5092   Anisotropy =     9.5140
   XX=    -2.3175   YX=     0.0136   ZX=     0.8012
   XY=    -0.1147   YY=    -2.7799   ZY=    -0.3318
   XZ=     1.7105   YZ=    -1.1095   ZZ=     6.6249
   Eigenvalues:    -2.8404    -2.4839     6.8518
     70  Bq   Isotropic =     0.4424   Anisotropy =     9.3995
   XX=    -2.3114   YX=    -0.0693   ZX=     0.8418
   XY=    -0.2350   YY=    -2.8199   ZY=    -0.3244
   XZ=     1.7337   YZ=    -1.2242   ZZ=     6.4584
   Eigenvalues:    -2.8892    -2.4924     6.7087
     71  Bq   Isotropic =     0.3857   Anisotropy =     9.3157
   XX=    -2.3123   YX=    -0.1576   ZX=     0.8788
   XY=    -0.3640   YY=    -2.8598   ZY=    -0.2933
   XZ=     1.7399   YZ=    -1.3093   ZZ=     6.3291
   Eigenvalues:    -2.9747    -2.4645     6.5961
     72  Bq   Isotropic =     0.3386   Anisotropy =     9.2668
   XX=    -2.3219   YX=    -0.2453   ZX=     0.9170
   XY=    -0.4941   YY=    -2.9017   ZY=    -0.2381
   XZ=     1.7375   YZ=    -1.3618   ZZ=     6.2393
   Eigenvalues:    -3.0844    -2.4163     6.5164
     73  Bq   Isotropic =     0.3006   Anisotropy =     9.2554
   XX=    -2.3410   YX=    -0.3265   ZX=     0.9617
   XY=    -0.6176   YY=    -2.9462   ZY=    -0.1599
   XZ=     1.7347   YZ=    -1.3803   ZZ=     6.1890
   Eigenvalues:    -3.2044    -2.3646     6.4709
     74  Bq   Isotropic =     0.2716   Anisotropy =     9.2819
   XX=    -2.3694   YX=    -0.3954   ZX=     1.0184
   XY=    -0.7268   YY=    -2.9919   ZY=    -0.0614
   XZ=     1.7395   YZ=    -1.3652   ZZ=     6.1760
   Eigenvalues:    -3.3232    -2.3216     6.4595
     75  Bq   Isotropic =     0.2516   Anisotropy =     9.3450
   XX=    -2.4059   YX=    -0.4471   ZX=     1.0923
   XY=    -0.8147   YY=    -3.0354   ZY=     0.0537
   XZ=     1.7589   YZ=    -1.3180   ZZ=     6.1961
   Eigenvalues:    -3.4314    -2.2953     6.4816
     76  Bq   Isotropic =     0.2414   Anisotropy =     9.4411
   XX=    -2.4481   YX=    -0.4778   ZX=     1.1878
   XY=    -0.8757   YY=    -3.0715   ZY=     0.1805
   XZ=     1.7997   YZ=    -1.2416   ZZ=     6.2437
   Eigenvalues:    -3.5207    -2.2907     6.5354
     77  Bq   Isotropic =     0.2415   Anisotropy =     9.5651
   XX=    -2.4928   YX=    -0.4846   ZX=     1.3087
   XY=    -0.9057   YY=    -3.0946   ZY=     0.3133
   XZ=     1.8676   YZ=    -1.1400   ZZ=     6.3118
   Eigenvalues:    -3.5844    -2.3094     6.6182
     78  Bq   Isotropic =     0.2523   Anisotropy =     9.7104
   XX=    -2.5361   YX=    -0.4662   ZX=     1.4574
   XY=    -0.9023   YY=    -3.0989   ZY=     0.4452
   XZ=     1.9674   YZ=    -1.0182   ZZ=     6.3918
   Eigenvalues:    -3.6184    -2.3507     6.7259
     79  Bq   Isotropic =     0.2735   Anisotropy =     9.8693
   XX=    -2.5732   YX=    -0.4229   ZX=     1.6354
   XY=    -0.8657   YY=    -3.0805   ZY=     0.5692
   XZ=     2.1029   YZ=    -0.8819   ZZ=     6.4742
   Eigenvalues:    -3.6219    -2.4106     6.8530
     80  Bq   Isotropic =     0.3037   Anisotropy =    10.0335
   XX=    -2.5994   YX=    -0.3565   ZX=     1.8427
   XY=    -0.7981   YY=    -3.0375   ZY=     0.6783
   XZ=     2.2764   YZ=    -0.7377   ZZ=     6.5482
   Eigenvalues:    -3.5989    -2.4826     6.9927
     81  Bq   Isotropic =     0.3406   Anisotropy =    10.1948
   XX=    -2.6096   YX=    -0.2703   ZX=     2.0782
   XY=    -0.7040   YY=    -2.9708   ZY=     0.7661
   XZ=     2.4884   YZ=    -0.5925   ZZ=     6.6022
   Eigenvalues:    -3.5593    -2.5560     7.1371
     82  Bq   Isotropic =     0.3806   Anisotropy =    10.3452
   XX=    -2.5987   YX=    -0.1689   ZX=     2.3390
   XY=    -0.5894   YY=    -2.8838   ZY=     0.8278
   XZ=     2.7370   YZ=    -0.4530   ZZ=     6.6243
   Eigenvalues:    -3.5204    -2.6152     7.2774
     83  Bq   Isotropic =     0.4196   Anisotropy =    10.4775
   XX=    -2.5622   YX=    -0.0577   ZX=     2.6212
   XY=    -0.4617   YY=    -2.7823   ZY=     0.8604
   XZ=     3.0181   YZ=    -0.3257   ZZ=     6.6032
   Eigenvalues:    -3.5049    -2.6410     7.4045
 End of Minotr F.D. properties file   721 does not exist.
 End of Minotr F.D. properties file   722 does not exist.
 End of Minotr F.D. properties file   788 does not exist.

 **********************************************************************

            Population analysis using the SCF density.

 **********************************************************************

 Alpha  occ. eigenvalues --  -10.13119 -10.13119 -10.13117 -10.13114 -10.13114
 Alpha  occ. eigenvalues --  -10.13112 -10.12927 -10.12918 -10.12917 -10.12916
 Alpha  occ. eigenvalues --  -10.12817 -10.12817 -10.12802  -0.96121  -0.89756
 Alpha  occ. eigenvalues --   -0.89754  -0.82166  -0.82166  -0.81857  -0.73253
 Alpha  occ. eigenvalues --   -0.66961  -0.66151  -0.66151  -0.56710  -0.55992
 Alpha  occ. eigenvalues --   -0.55991  -0.52531  -0.52531  -0.49053  -0.49051
 Alpha  occ. eigenvalues --   -0.47938  -0.43265  -0.43049  -0.43047  -0.42649
 Alpha  occ. eigenvalues --   -0.42648  -0.42632  -0.42223  -0.38554  -0.38550
 Alpha  occ. eigenvalues --   -0.37314  -0.33710  -0.32473  -0.32471  -0.27152
 Alpha  occ. eigenvalues --   -0.26279  -0.26279  -0.18687  -0.18685  -0.12105
 Alpha virt. eigenvalues --   -0.06052  -0.00858  -0.00856   0.00628   0.02535
 Alpha virt. eigenvalues --    0.02536   0.02887   0.02889   0.03740   0.05269
 Alpha virt. eigenvalues --    0.05310   0.06404   0.06405   0.07131   0.07133
 Alpha virt. eigenvalues --    0.07415   0.08434   0.08437   0.10699   0.10700
 Alpha virt. eigenvalues --    0.11029   0.11941   0.12075   0.13166   0.13168
 Alpha virt. eigenvalues --    0.14451   0.14451   0.14913   0.15866   0.15989
 Alpha virt. eigenvalues --    0.17101   0.17129   0.17130   0.17557   0.17560
 Alpha virt. eigenvalues --    0.17913   0.18504   0.18510   0.19231   0.19238
 Alpha virt. eigenvalues --    0.19431   0.19622   0.21564   0.21565   0.21645
 Alpha virt. eigenvalues --    0.22024   0.22024   0.23038   0.23806   0.23813
 Alpha virt. eigenvalues --    0.24366   0.24368   0.25155   0.25719   0.25719
 Alpha virt. eigenvalues --    0.26496   0.27173   0.27177   0.29082   0.29086
 Alpha virt. eigenvalues --    0.29866   0.30523   0.30540   0.31331   0.31631
 Alpha virt. eigenvalues --    0.31632   0.31647   0.33826   0.34597   0.34602
 Alpha virt. eigenvalues --    0.34791   0.35213   0.35214   0.37691   0.39361
 Alpha virt. eigenvalues --    0.39375   0.39482   0.40324   0.40329   0.41752
 Alpha virt. eigenvalues --    0.41787   0.44179   0.44180   0.46106   0.46719
 Alpha virt. eigenvalues --    0.47125   0.47127   0.47993   0.50810   0.50810
 Alpha virt. eigenvalues --    0.53288   0.53833   0.53838   0.54341   0.57370
 Alpha virt. eigenvalues --    0.57374   0.62590   0.63811   0.63813   0.66463
 Alpha virt. eigenvalues --    0.67361   0.67364   0.68129   0.68838   0.68840
 Alpha virt. eigenvalues --    0.70400   0.70401   0.70701   0.71545   0.73033
 Alpha virt. eigenvalues --    0.73036   0.74431   0.74434   0.75579   0.75952
 Alpha virt. eigenvalues --    0.77540   0.77544   0.77562   0.78346   0.78348
 Alpha virt. eigenvalues --    0.78701   0.79700   0.80611   0.81981   0.81990
 Alpha virt. eigenvalues --    0.83368   0.83370   0.84490   0.85050   0.87175
 Alpha virt. eigenvalues --    0.87176   0.87596   0.87598   0.90484   0.90486
 Alpha virt. eigenvalues --    0.91018   0.93899   0.93901   0.96595   0.96597
 Alpha virt. eigenvalues --    0.96819   0.98350   0.99594   1.00504   1.00507
 Alpha virt. eigenvalues --    1.05790   1.08152   1.08157   1.08432   1.10244
 Alpha virt. eigenvalues --    1.11219   1.11223   1.14921   1.14925   1.15652
 Alpha virt. eigenvalues --    1.17971   1.17976   1.24156   1.24159   1.24235
 Alpha virt. eigenvalues --    1.26197   1.30728   1.30731   1.38195   1.38197
 Alpha virt. eigenvalues --    1.40480   1.41511   1.41514   1.42034   1.48712
 Alpha virt. eigenvalues --    1.48716   1.49112   1.50262   1.50263   1.51802
 Alpha virt. eigenvalues --    1.56212   1.56220   1.57658   1.60632   1.60634
 Alpha virt. eigenvalues --    1.60927   1.67481   1.67483   1.72673   1.75931
 Alpha virt. eigenvalues --    1.79465   1.79465   1.79479   1.79821   1.83439
 Alpha virt. eigenvalues --    1.83441   1.86672   1.87253   1.87257   1.89924
 Alpha virt. eigenvalues --    1.89927   1.93160   1.94395   1.94404   1.98386
 Alpha virt. eigenvalues --    2.02181   2.03467   2.03473   2.05195   2.05199
 Alpha virt. eigenvalues --    2.05865   2.05868   2.13289   2.14320   2.18094
 Alpha virt. eigenvalues --    2.31810   2.31811   2.33302   2.33306   2.35884
 Alpha virt. eigenvalues --    2.36059   2.36061   2.42481   2.45510   2.45521
 Alpha virt. eigenvalues --    2.48420   2.48425   2.51748   2.52522   2.59474
 Alpha virt. eigenvalues --    2.62737   2.62739   2.68259   2.68718   2.68721
 Alpha virt. eigenvalues --    2.72106   2.73624   2.73630   2.78687   2.80043
 Alpha virt. eigenvalues --    2.80047   2.85194   2.87667   2.87672   2.89523
 Alpha virt. eigenvalues --    2.94554   2.94556   2.98848   2.98855   3.09032
 Alpha virt. eigenvalues --    3.16327   3.16330   3.21769   3.21780   3.22292
 Alpha virt. eigenvalues --    3.28115   3.29261   3.31850   3.31852   3.34362
 Alpha virt. eigenvalues --    3.37128   3.37131   3.37174   3.40061   3.40067
 Alpha virt. eigenvalues --    3.41234   3.50130   3.50141   3.52857   3.62433
 Alpha virt. eigenvalues --    3.62433   3.70571   3.70579   3.72206   3.77483
 Alpha virt. eigenvalues --    3.78179   3.78187   3.90005   3.95349   4.01179
 Alpha virt. eigenvalues --    4.01184   4.07467   4.07471   4.29062   4.29072
 Alpha virt. eigenvalues --    4.38286   4.70625   4.78401   4.78408  23.34158
 Alpha virt. eigenvalues --   23.80877  23.80899  24.08572  24.08575  24.11263
 Alpha virt. eigenvalues --   24.12969  24.17320  24.17326  24.19197  24.21199
 Alpha virt. eigenvalues --   24.22936  24.22942
     Molecular Orbital Coefficients:
                           1         2         3         4         5
                           O         O         O         O         O
     Eigenvalues --   -10.13119 -10.13119 -10.13117 -10.13114 -10.13114
   1 1   C  1S          0.36407  -0.12163   0.18924   0.28469  -0.10857
   2        2S          0.29970  -0.10009   0.15590   0.23421  -0.08933
   3        2PX        -0.00013   0.00009  -0.00001  -0.00008   0.00004
   4        2PY        -0.00014   0.00025  -0.00001   0.00013  -0.00016
   5        2PZ        -0.00027   0.00010  -0.00012  -0.00018   0.00007
   6        3S          0.01482  -0.00546   0.00659   0.01211  -0.00427
   7        3PX         0.00162  -0.00085   0.00038   0.00126  -0.00056
   8        3PY        -0.00004  -0.00122  -0.00036  -0.00151   0.00123
   9        3PZ        -0.00008  -0.00004  -0.00013  -0.00017   0.00009
  10        4S         -0.04142   0.02718  -0.00726  -0.02545  -0.00047
  11        4PX        -0.01361   0.01109  -0.00167  -0.00604  -0.00181
  12        4PY         0.00433  -0.00238   0.00342   0.00074   0.00145
  13        4PZ         0.00430  -0.00184   0.00102   0.00395  -0.00014
  14        5S         -0.00213   0.01937   0.03614  -0.03920   0.01023
  15        5PX         0.00090   0.00786   0.00492  -0.00963   0.00399
  16        5PY         0.00599   0.00672   0.00285  -0.00333   0.00268
  17        5PZ        -0.00001  -0.00090  -0.00153   0.00111  -0.00002
  18        6D 0       -0.00046   0.00011  -0.00024  -0.00055   0.00027
  19        6D+1        0.00001   0.00003   0.00002   0.00002   0.00003
  20        6D-1       -0.00004  -0.00001  -0.00005  -0.00003   0.00004
  21        6D+2        0.00009  -0.00039  -0.00008  -0.00072   0.00047
  22        6D-2        0.00061  -0.00062   0.00005   0.00041   0.00007
  23 2   C  1S          0.08140  -0.04211   0.04386  -0.00010   0.01846
  24        2S          0.06723  -0.03477   0.03631  -0.00011   0.01522
  25        2PX         0.00005  -0.00017   0.00014  -0.00039   0.00022
  26        2PY         0.00027   0.00013   0.00012   0.00061  -0.00038
  27        2PZ         0.00003  -0.00001   0.00001  -0.00001  -0.00001
  28        3S          0.00211  -0.00113   0.00079   0.00017   0.00071
  29        3PX         0.00049   0.00050  -0.00045   0.00171  -0.00070
  30        3PY        -0.00086  -0.00099  -0.00042  -0.00254   0.00172
  31        3PZ        -0.00030   0.00016  -0.00015   0.00003  -0.00002
  32        4S          0.02262  -0.01234   0.00630   0.00214   0.00759
  33        4PX         0.01115  -0.00638   0.00308  -0.00159   0.00339
  34        4PY         0.00721  -0.00329   0.00205   0.00303  -0.00040
  35        4PZ        -0.00104   0.00060  -0.00013  -0.00042  -0.00082
  36        5S          0.00772  -0.00597  -0.01863  -0.00030  -0.00161
  37        5PX         0.00038  -0.00534  -0.00300   0.00190  -0.00215
  38        5PY         0.00475   0.00551  -0.00295  -0.00392   0.00257
  39        5PZ        -0.00024   0.00024   0.00089  -0.00042  -0.00059
  40        6D 0        0.00044  -0.00022   0.00033  -0.00002   0.00008
  41        6D+1       -0.00008   0.00006   0.00000   0.00003  -0.00005
  42        6D-1       -0.00007   0.00002   0.00000  -0.00007   0.00002
  43        6D+2        0.00069   0.00031   0.00029   0.00154  -0.00087
  44        6D-2        0.00019  -0.00047   0.00032  -0.00089   0.00064
  45 3   C  1S          0.24846  -0.19356   0.15159  -0.28971   0.23870
  46        2S          0.20453  -0.15934   0.12493  -0.23840   0.19640
  47        2PX        -0.00033   0.00003  -0.00001  -0.00010  -0.00002
  48        2PY         0.00004   0.00005   0.00001   0.00017  -0.00007
  49        2PZ        -0.00020   0.00014  -0.00010   0.00019  -0.00015
  50        3S          0.01037  -0.00776   0.00497  -0.01177   0.01017
  51        3PX         0.00177   0.00001  -0.00014   0.00087  -0.00013
  52        3PY         0.00052  -0.00089   0.00028  -0.00201   0.00125
  53        3PZ         0.00001   0.00005  -0.00011   0.00017  -0.00012
  54        4S         -0.04025   0.01849  -0.00320   0.01721  -0.02636
  55        4PX        -0.00390   0.00092   0.00266   0.00157  -0.00211
  56        4PY        -0.01559   0.00559  -0.00204   0.00274  -0.00740
  57        4PZ         0.00314  -0.00230   0.00057  -0.00252   0.00373
  58        5S         -0.00174  -0.00943   0.04323   0.02572  -0.02197
  59        5PX        -0.00325  -0.00989   0.00780   0.00621  -0.00468
  60        5PY        -0.00182  -0.00050   0.00405   0.00522  -0.00418
  61        5PZ         0.00049   0.00029  -0.00175  -0.00032   0.00092
  62        6D 0       -0.00024   0.00025  -0.00016   0.00056  -0.00041
  63        6D+1       -0.00002   0.00002  -0.00002   0.00006   0.00000
  64        6D-1       -0.00002  -0.00003   0.00005  -0.00002   0.00003
  65        6D+2        0.00041  -0.00017  -0.00003  -0.00055   0.00059
  66        6D-2        0.00083  -0.00005  -0.00003   0.00051  -0.00011
  67 4   H  1S          0.00012  -0.00005  -0.00001  -0.00011   0.00011
  68        2S         -0.00064   0.00000  -0.00062  -0.00048   0.00047
  69        3S         -0.00224   0.00004   0.00069  -0.00089  -0.00054
  70 5   C  1S          0.00191  -0.02937   0.02980  -0.04103   0.00392
  71        2S          0.00162  -0.02426   0.02479  -0.03374   0.00325
  72        2PX        -0.00081  -0.00002   0.00019   0.00010  -0.00043
  73        2PY         0.00000   0.00044  -0.00018   0.00042  -0.00002
  74        2PZ         0.00001   0.00001   0.00004   0.00001   0.00000
  75        3S         -0.00028  -0.00100  -0.00015  -0.00314   0.00009
  76        3PX         0.00375   0.00007  -0.00082  -0.00041   0.00149
  77        3PY        -0.00007  -0.00209   0.00036  -0.00180   0.00003
  78        3PZ        -0.00003   0.00000  -0.00020  -0.00001  -0.00002
  79        4S          0.00295  -0.01943   0.01042   0.01187  -0.00040
  80        4PX        -0.02973  -0.00018   0.00707   0.00292  -0.01746
  81        4PY         0.00173   0.00173   0.00480   0.01163   0.00003
  82        4PZ        -0.00011   0.00099   0.00035  -0.00193   0.00019
  83        5S         -0.00690   0.02214  -0.02493  -0.03007  -0.00018
  84        5PX        -0.00217  -0.00469   0.00373   0.00891  -0.02046
  85        5PY         0.00489  -0.01683   0.02691   0.00258   0.00203
  86        5PZ         0.00103  -0.00194   0.00607  -0.00014   0.00059
  87        6D 0        0.00004  -0.00032   0.00039  -0.00034   0.00004
  88        6D+1        0.00014   0.00000  -0.00004  -0.00002   0.00009
  89        6D-1        0.00000  -0.00002   0.00004  -0.00003   0.00001
  90        6D+2       -0.00004   0.00086  -0.00057   0.00077  -0.00006
  91        6D-2       -0.00144  -0.00002   0.00039   0.00017  -0.00118
  92 6   C  1S          0.00064  -0.00001   0.00389  -0.00009   0.00045
  93        2S          0.00057  -0.00001   0.00345  -0.00008   0.00040
  94        2PX        -0.00036  -0.00001   0.00004   0.00004   0.00020
  95        2PY         0.00001   0.00036   0.00000   0.00021   0.00001
  96        2PZ         0.00000   0.00000  -0.00003   0.00000   0.00000
  97        3S         -0.00022   0.00001  -0.00134   0.00003  -0.00015
  98        3PX         0.00215   0.00009  -0.00023  -0.00024  -0.00119
  99        3PY        -0.00009  -0.00213  -0.00002  -0.00127  -0.00005
 100        3PZ         0.00001   0.00000   0.00006   0.00000   0.00001
 101        4S         -0.00212   0.00005  -0.01275   0.00030  -0.00144
 102        4PX         0.01021  -0.00089  -0.00385   0.00013   0.01930
 103        4PY         0.00174  -0.01116   0.00025   0.01888  -0.00145
 104        4PZ        -0.00041   0.00001  -0.00246   0.00006  -0.00028
 105        5S         -0.01749   0.00044  -0.10595   0.00251  -0.01199
 106        5PX         0.00339  -0.00048  -0.00172   0.00022   0.01015
 107        5PY         0.00090  -0.00386   0.00013   0.01000  -0.00067
 108        5PZ        -0.00161   0.00004  -0.00970   0.00023  -0.00110
 109        6D 0        0.00002   0.00000   0.00011   0.00000   0.00001
 110        6D+1        0.00006   0.00000  -0.00001  -0.00001  -0.00003
 111        6D-1        0.00000  -0.00006   0.00000  -0.00003   0.00000
 112        6D+2       -0.00007  -0.00048  -0.00001  -0.00090   0.00002
 113        6D-2        0.00051   0.00005   0.00001  -0.00009  -0.00088
 114 7   C  1S          0.03298   0.01655   0.03004   0.01547  -0.03084
 115        2S          0.02725   0.01366   0.02497   0.01271  -0.02531
 116        2PX        -0.00061   0.00017  -0.00010  -0.00032   0.00021
 117        2PY        -0.00017   0.00079   0.00015  -0.00024  -0.00029
 118        2PZ         0.00000  -0.00001   0.00004  -0.00001   0.00001
 119        3S          0.00108   0.00065   0.00005   0.00136  -0.00276
 120        3PX         0.00274  -0.00076   0.00004   0.00116  -0.00100
 121        3PY         0.00080  -0.00359  -0.00045   0.00070   0.00112
 122        3PZ        -0.00003   0.00000  -0.00020   0.00001  -0.00004
 123        4S          0.01720   0.00924   0.00627  -0.00707   0.01305
 124        4PX        -0.00977   0.01274   0.00483  -0.01176   0.00627
 125        4PY        -0.01367   0.02499   0.00087  -0.00979  -0.01090
 126        4PZ        -0.00063  -0.00042   0.00071   0.00093  -0.00173
 127        5S         -0.02034  -0.00970  -0.01830   0.01598  -0.03134
 128        5PX         0.01320   0.01229   0.02101  -0.01565   0.00275
 129        5PY        -0.01386   0.00484  -0.01188  -0.02064  -0.00894
 130        5PZ         0.00263   0.00095   0.00579  -0.00028   0.00080
 131        6D 0        0.00036   0.00018   0.00038   0.00012  -0.00023
 132        6D+1        0.00006  -0.00006   0.00003   0.00005   0.00000
 133        6D-1        0.00006  -0.00013  -0.00003   0.00006   0.00004
 134        6D+2       -0.00029   0.00145   0.00041  -0.00075  -0.00066
 135        6D-2       -0.00119   0.00030  -0.00037  -0.00074   0.00026
 136 8   C  1S          0.08476   0.34374   0.24273  -0.09480  -0.26793
 137        2S          0.06982   0.28292   0.19993  -0.07798  -0.22042
 138        2PX        -0.00012   0.00012   0.00003  -0.00004   0.00021
 139        2PY        -0.00009   0.00026   0.00006  -0.00004   0.00002
 140        2PZ        -0.00005  -0.00026  -0.00016   0.00006   0.00017
 141        3S          0.00290   0.01439   0.00888  -0.00436  -0.01121
 142        3PX         0.00096   0.00036   0.00051  -0.00015  -0.00224
 143        3PY         0.00047  -0.00181  -0.00048   0.00034   0.00014
 144        3PZ        -0.00007  -0.00003  -0.00013   0.00003   0.00018
 145        4S          0.00309  -0.04738  -0.01566   0.01726   0.01790
 146        4PX         0.00114  -0.01212  -0.00596   0.00414   0.00121
 147        4PY        -0.00268   0.01229   0.00201  -0.00401  -0.00295
 148        4PZ         0.00050   0.00439   0.00179  -0.00248  -0.00294
 149        5S          0.01786  -0.01758   0.03452   0.02333   0.02542
 150        5PX        -0.00411  -0.00328   0.00008   0.00227   0.00039
 151        5PY        -0.01121   0.00259  -0.00451  -0.00279  -0.00904
 152        5PZ        -0.00096   0.00063  -0.00131  -0.00072  -0.00090
 153        6D 0       -0.00014  -0.00042  -0.00030   0.00013   0.00055
 154        6D+1        0.00004   0.00001   0.00005   0.00000  -0.00005
 155        6D-1       -0.00001   0.00002   0.00001   0.00004  -0.00003
 156        6D+2        0.00035  -0.00084  -0.00016   0.00025  -0.00019
 157        6D-2        0.00012   0.00017   0.00013  -0.00022  -0.00083
 158 9   C  1S          0.00751   0.08364   0.05726  -0.01472   0.01160
 159        2S          0.00622   0.06906   0.04737  -0.01211   0.00959
 160        2PX        -0.00026  -0.00007  -0.00004   0.00011   0.00080
 161        2PY        -0.00003  -0.00017  -0.00020  -0.00003  -0.00003
 162        2PZ         0.00000   0.00003   0.00002   0.00001   0.00000
 163        3S          0.00012   0.00223   0.00117  -0.00068   0.00029
 164        3PX         0.00138   0.00030   0.00012  -0.00048  -0.00340
 165        3PY         0.00013  -0.00010   0.00056   0.00036   0.00004
 166        3PZ        -0.00003  -0.00031  -0.00019   0.00000  -0.00004
 167        4S          0.00086   0.02423   0.01038  -0.00766   0.00274
 168        4PX        -0.00058  -0.00038  -0.00027   0.00057   0.00363
 169        4PY        -0.00065  -0.01426  -0.00596   0.00247  -0.00150
 170        4PZ         0.00003  -0.00113  -0.00036   0.00092  -0.00014
 171        5S         -0.00291   0.01228  -0.01681   0.00013  -0.00130
 172        5PX        -0.00855  -0.00004   0.00209   0.00082  -0.00563
 173        5PY         0.00059  -0.00385   0.00352  -0.00033   0.00022
 174        5PZ         0.00020  -0.00042   0.00077   0.00078   0.00003
 175        6D 0        0.00006   0.00043   0.00040  -0.00005   0.00007
 176        6D+1        0.00002   0.00001   0.00000  -0.00001  -0.00007
 177        6D-1        0.00000   0.00012   0.00002  -0.00003   0.00001
 178        6D+2       -0.00007  -0.00050  -0.00050   0.00009  -0.00009
 179        6D-2       -0.00065  -0.00018  -0.00010   0.00028   0.00196
 180 10  C  1S         -0.02561   0.28258   0.19711  -0.00569   0.35370
 181        2S         -0.02108   0.23261   0.16240  -0.00465   0.29105
 182        2PX        -0.00011  -0.00016  -0.00004   0.00009   0.00018
 183        2PY         0.00009   0.00025   0.00004  -0.00005   0.00002
 184        2PZ         0.00001  -0.00022  -0.00013   0.00000  -0.00023
 185        3S         -0.00094   0.01182   0.00688  -0.00066   0.01455
 186        3PX         0.00080   0.00005  -0.00032  -0.00049  -0.00233
 187        3PY        -0.00051  -0.00174  -0.00026   0.00031  -0.00044
 188        3PZ         0.00004   0.00000  -0.00011  -0.00002  -0.00021
 189        4S         -0.00414  -0.04247  -0.00998   0.01097  -0.02667
 190        4PX         0.00210   0.01142   0.00491  -0.00337   0.00397
 191        4PY         0.00226   0.01140   0.00043  -0.00309   0.00477
 192        4PZ        -0.00039   0.00364   0.00125  -0.00138   0.00387
 193        5S         -0.00334  -0.00139   0.04042  -0.00132  -0.01905
 194        5PX        -0.00409   0.00190   0.00138   0.00055   0.00087
 195        5PY         0.00861   0.00004  -0.00934  -0.00030   0.00778
 196        5PZ         0.00033   0.00052  -0.00170  -0.00068   0.00069
 197        6D 0        0.00007  -0.00030  -0.00021  -0.00003  -0.00065
 198        6D+1        0.00003  -0.00001  -0.00005  -0.00001  -0.00006
 199        6D-1        0.00002   0.00002  -0.00001   0.00003   0.00003
 200        6D+2       -0.00033  -0.00085  -0.00008   0.00029   0.00005
 201        6D-2        0.00012   0.00000   0.00001  -0.00001  -0.00086
 202 11  C  1S         -0.01981   0.01253   0.03139   0.02348   0.03733
 203        2S         -0.01633   0.01036   0.02611   0.01930   0.03072
 204        2PX        -0.00049  -0.00018   0.00024   0.00038   0.00019
 205        2PY         0.00016   0.00070   0.00003  -0.00014   0.00041
 206        2PZ         0.00002  -0.00001   0.00004  -0.00001   0.00000
 207        3S         -0.00085   0.00035  -0.00022   0.00180   0.00264
 208        3PX         0.00238   0.00081  -0.00067  -0.00151  -0.00087
 209        3PY        -0.00070  -0.00330   0.00007   0.00039  -0.00157
 210        3PZ        -0.00003   0.00000  -0.00020   0.00001  -0.00001
 211        4S         -0.01501   0.01007   0.01411  -0.00553  -0.00919
 212        4PX        -0.00880  -0.01267  -0.00287   0.01248   0.00291
 213        4PY         0.01086   0.02260  -0.00572  -0.00828   0.01365
 214        4PZ         0.00092  -0.00057   0.00007   0.00098   0.00168
 215        5S          0.01507  -0.01212  -0.03034   0.01582   0.02322
 216        5PX         0.00727  -0.00627  -0.02532   0.00410  -0.00437
 217        5PY         0.00724  -0.00566  -0.01537  -0.00463   0.00711
 218        5PZ        -0.00064   0.00092   0.00635  -0.00001   0.00067
 219        6D 0       -0.00021   0.00014   0.00041   0.00020   0.00032
 220        6D+1        0.00004   0.00006  -0.00004  -0.00005   0.00000
 221        6D-1       -0.00005  -0.00011  -0.00001   0.00005  -0.00006
 222        6D+2        0.00025   0.00127   0.00016  -0.00053   0.00093
 223        6D-2       -0.00088  -0.00028   0.00065   0.00084   0.00027
 224 12  C  1S         -0.23781  -0.11148   0.25947   0.29898   0.11799
 225        2S         -0.19574  -0.09174   0.21372   0.24600   0.09713
 226        2PX        -0.00011  -0.00009   0.00004   0.00009   0.00003
 227        2PY         0.00014   0.00024  -0.00010   0.00011   0.00016
 228        2PZ         0.00018   0.00010  -0.00018  -0.00019  -0.00007
 229        3S         -0.00995  -0.00495   0.00955   0.01258   0.00433
 230        3PX         0.00120   0.00081  -0.00072  -0.00134  -0.00047
 231        3PY        -0.00024  -0.00120  -0.00002  -0.00144  -0.00125
 232        3PZ         0.00001  -0.00003  -0.00012  -0.00017  -0.00010
 233        4S          0.03205   0.02507  -0.01940  -0.02683   0.00272
 234        4PX        -0.01101  -0.01040   0.00615   0.00667  -0.00265
 235        4PY        -0.00277  -0.00223   0.00484   0.00102  -0.00085
 236        4PZ        -0.00307  -0.00153   0.00217   0.00390  -0.00007
 237        5S          0.00959   0.00580   0.03778  -0.01644   0.00212
 238        5PX         0.00048  -0.00586  -0.00618   0.00591   0.00129
 239        5PY        -0.00530   0.00686   0.00511  -0.00273  -0.00082
 240        5PZ        -0.00029  -0.00084  -0.00143   0.00104  -0.00051
 241        6D 0        0.00028   0.00010  -0.00029  -0.00055  -0.00026
 242        6D+1        0.00000  -0.00004  -0.00003  -0.00001   0.00002
 243        6D-1        0.00002   0.00000  -0.00005  -0.00004  -0.00005
 244        6D+2       -0.00020  -0.00041   0.00008  -0.00064  -0.00045
 245        6D-2        0.00048   0.00057  -0.00024  -0.00041   0.00013
 246 13  C  1S         -0.06090  -0.04242   0.07141   0.01078  -0.01028
 247        2S         -0.05027  -0.03503   0.05905   0.00887  -0.00843
 248        2PX         0.00006   0.00019  -0.00020   0.00035   0.00016
 249        2PY        -0.00013   0.00014   0.00010   0.00060   0.00036
 250        2PZ        -0.00002  -0.00001   0.00002   0.00000   0.00001
 251        3S         -0.00166  -0.00112   0.00158   0.00043  -0.00058
 252        3PX         0.00038  -0.00054   0.00046  -0.00165  -0.00048
 253        3PY         0.00036  -0.00100  -0.00021  -0.00248  -0.00164
 254        3PZ         0.00023   0.00016  -0.00024  -0.00002   0.00000
 255        4S         -0.01823  -0.01200   0.01471   0.00479  -0.00681
 256        4PX         0.00940   0.00646  -0.00725  -0.00015   0.00281
 257        4PY        -0.00556  -0.00311   0.00402   0.00356   0.00044
 258        4PZ         0.00082   0.00053  -0.00062  -0.00048   0.00084
 259        5S         -0.01309  -0.00611  -0.01503   0.00135  -0.00285
 260        5PX         0.00091   0.00572   0.00306  -0.00254  -0.00070
 261        5PY        -0.00612   0.00604  -0.00069  -0.00394  -0.00201
 262        5PZ         0.00042   0.00017   0.00062  -0.00041   0.00082
 263        6D 0       -0.00030  -0.00022   0.00046   0.00004  -0.00002
 264        6D+1       -0.00008  -0.00006   0.00003  -0.00001  -0.00005
 265        6D-1        0.00005   0.00001  -0.00002  -0.00006  -0.00001
 266        6D+2       -0.00036   0.00034   0.00025   0.00149   0.00081
 267        6D-2        0.00018   0.00049  -0.00052   0.00080   0.00051
 268 14  C  1S         -0.21445  -0.20490   0.28199  -0.22448  -0.18460
 269        2S         -0.17647  -0.16868   0.23224  -0.18472  -0.15184
 270        2PX        -0.00029  -0.00003   0.00012   0.00015  -0.00002
 271        2PY        -0.00001   0.00005   0.00000   0.00016   0.00006
 272        2PZ         0.00017   0.00015  -0.00019   0.00014   0.00012
 273        3S         -0.00934  -0.00823   0.01056  -0.00900  -0.00820
 274        3PX         0.00157   0.00001  -0.00040  -0.00110  -0.00006
 275        3PY        -0.00063  -0.00094   0.00076  -0.00176  -0.00103
 276        3PZ        -0.00002   0.00005  -0.00013   0.00017   0.00008
 277        4S          0.03770   0.01940  -0.02240   0.00866   0.02411
 278        4PX        -0.00465  -0.00104  -0.00066  -0.00065  -0.00248
 279        4PY         0.01388   0.00584  -0.00866  -0.00014   0.00664
 280        4PZ        -0.00293  -0.00239   0.00246  -0.00170  -0.00342
 281        5S          0.01670   0.00229   0.03179   0.00262   0.02860
 282        5PX        -0.00644   0.00921  -0.00494  -0.00409  -0.00465
 283        5PY         0.00337   0.00114   0.00181   0.00178   0.00451
 284        5PZ        -0.00105   0.00034  -0.00125  -0.00022  -0.00120
 285        6D 0        0.00024   0.00027  -0.00034   0.00047   0.00033
 286        6D+1       -0.00002  -0.00001   0.00003  -0.00006   0.00001
 287        6D-1        0.00003  -0.00003   0.00004  -0.00002  -0.00002
 288        6D+2       -0.00045  -0.00019   0.00025  -0.00041  -0.00054
 289        6D-2        0.00071   0.00005  -0.00020  -0.00061  -0.00007
 290 15  H  1S         -0.00013  -0.00005   0.00005  -0.00007  -0.00010
 291        2S          0.00035  -0.00001  -0.00065  -0.00050  -0.00057
 292        3S          0.00215   0.00000  -0.00018  -0.00116   0.00070
 293 16  H  1S          0.00022   0.00015  -0.00025  -0.00002  -0.00001
 294        2S         -0.00101  -0.00063   0.00043   0.00002   0.00008
 295        3S         -0.00306  -0.00213   0.00360   0.00045  -0.00035
 296 17  H  1S         -0.00010  -0.00009   0.00004   0.00013   0.00002
 297        2S          0.00016   0.00044  -0.00068   0.00066   0.00010
 298        3S          0.00110   0.00189  -0.00005  -0.00001   0.00133
 299 18  H  1S          0.00002   0.00013   0.00000  -0.00002   0.00013
 300        2S         -0.00037  -0.00047  -0.00066  -0.00008   0.00060
 301        3S         -0.00097  -0.00201   0.00040   0.00111   0.00046
 302 19  H  1S         -0.00003  -0.00030  -0.00021   0.00000  -0.00004
 303        2S          0.00004   0.00123   0.00027   0.00013   0.00009
 304        3S          0.00040   0.00421   0.00293  -0.00057   0.00057
 305 20  H  1S         -0.00002   0.00015   0.00004  -0.00006  -0.00011
 306        2S          0.00014  -0.00033  -0.00061  -0.00031  -0.00076
 307        3S          0.00126  -0.00190   0.00015   0.00084  -0.00069
 308 21  H  1S         -0.00029   0.00015  -0.00016   0.00003  -0.00002
 309        2S          0.00110  -0.00060   0.00010  -0.00017  -0.00008
 310        3S          0.00412  -0.00212   0.00228  -0.00009   0.00078
 311 22  H  1S          0.00013  -0.00010   0.00001   0.00013  -0.00003
 312        2S         -0.00026   0.00039  -0.00056   0.00079  -0.00027
 313        3S         -0.00104   0.00198   0.00058   0.00008  -0.00108
 314 23  H  1S          0.00007  -0.00004  -0.00013  -0.00020  -0.00031
 315        2S         -0.00006  -0.00010  -0.00036   0.00168   0.00256
 316        3S          0.00045  -0.00003   0.00199  -0.00081  -0.00095
 317 24  H  1S          0.00000   0.00011  -0.00014   0.00035  -0.00003
 318        2S         -0.00028  -0.00007  -0.00015  -0.00305   0.00013
 319        3S          0.00043   0.00017   0.00191   0.00135   0.00016
 320 25  H  1S          0.00005   0.00000   0.00029  -0.00001   0.00003
 321        2S         -0.00033   0.00001  -0.00197   0.00005  -0.00022
 322        3S         -0.00056   0.00001  -0.00339   0.00008  -0.00039
 323 26  H  1S         -0.00015  -0.00007  -0.00016  -0.00015   0.00029
 324        2S          0.00028   0.00017   0.00018   0.00138  -0.00273
 325        3S          0.00005  -0.00016   0.00178  -0.00066   0.00144
 326 27  H  1S         -0.00038   0.00014  -0.00012  -0.00045   0.00010
 327        2S          0.00326  -0.00161   0.00066   0.00339  -0.00053
 328        3S          0.00506  -0.00204   0.00163   0.00431  -0.00106
 329 28  H  1S         -0.00030   0.00016  -0.00013   0.00001  -0.00005
 330        2S          0.00034  -0.00019   0.00005   0.00001   0.00008
 331        3S         -0.00135   0.00075  -0.00047  -0.00044  -0.00095
 332 29  H  1S         -0.00024   0.00020  -0.00006   0.00035  -0.00038
 333        2S          0.00246  -0.00159   0.00021  -0.00246   0.00299
 334        3S          0.00368  -0.00269   0.00107  -0.00364   0.00379
 335 30  H  1S          0.00025   0.00012  -0.00020  -0.00044  -0.00008
 336        2S         -0.00232  -0.00137   0.00144   0.00332   0.00028
 337        3S         -0.00354  -0.00188   0.00278   0.00452   0.00091
 338 31  H  1S          0.00024   0.00016  -0.00023  -0.00003   0.00003
 339        2S         -0.00029  -0.00019   0.00018   0.00006  -0.00008
 340        3S          0.00099   0.00068  -0.00106  -0.00054   0.00090
 341 32  H  1S          0.00024   0.00021  -0.00024   0.00027   0.00034
 342        2S         -0.00245  -0.00170   0.00174  -0.00175  -0.00273
 343        3S         -0.00345  -0.00276   0.00312  -0.00280  -0.00327
 344 33  H  1S         -0.00006  -0.00038  -0.00019   0.00021   0.00039
 345        2S          0.00018   0.00346   0.00127  -0.00179  -0.00276
 346        3S          0.00075   0.00506   0.00249  -0.00192  -0.00380
 347 34  H  1S         -0.00002  -0.00032  -0.00018   0.00004  -0.00004
 348        2S          0.00001   0.00037   0.00011  -0.00008   0.00004
 349        3S         -0.00003  -0.00142  -0.00075   0.00103  -0.00020
 350 35  H  1S          0.00004  -0.00029  -0.00012   0.00008  -0.00047
 351        2S         -0.00014   0.00279   0.00070  -0.00085   0.00343
 352        3S         -0.00035   0.00425   0.00177  -0.00078   0.00487
                           6         7         8         9        10
                           O         O         O         O         O
     Eigenvalues --   -10.13112 -10.12927 -10.12918 -10.12917 -10.12916
   1 1   C  1S         -0.18310   0.00487   0.01524   0.05116  -0.04892
   2        2S         -0.15063   0.00410   0.01250   0.04198  -0.04006
   3        2PX         0.00004   0.00021   0.00006   0.00014  -0.00002
   4        2PY        -0.00005   0.00023   0.00018   0.00055  -0.00042
   5        2PZ         0.00012  -0.00001  -0.00004  -0.00007   0.00008
   6        3S         -0.00789  -0.00046   0.00091   0.00266  -0.00298
   7        3PX        -0.00075  -0.00118  -0.00031  -0.00071  -0.00007
   8        3PY         0.00076  -0.00100  -0.00070  -0.00231   0.00160
   9        3PZ         0.00006   0.00000   0.00011   0.00008  -0.00014
  10        4S          0.01706   0.00151  -0.00660  -0.03005   0.01921
  11        4PX         0.00426   0.00003  -0.00341  -0.01021   0.00568
  12        4PY        -0.00061   0.00608   0.00524   0.00955  -0.00249
  13        4PZ        -0.00263  -0.00017   0.00026   0.00188  -0.00192
  14        5S          0.11163   0.00663   0.01658   0.00290   0.06210
  15        5PX         0.01731  -0.00014   0.00592  -0.00227   0.00861
  16        5PY        -0.00130  -0.00204   0.01116   0.00042  -0.00156
  17        5PZ        -0.00020   0.00043   0.00055   0.00063  -0.00006
  18        6D 0        0.00032  -0.00004  -0.00014  -0.00047   0.00050
  19        6D+1       -0.00004  -0.00003   0.00001   0.00001  -0.00003
  20        6D-1       -0.00001   0.00004  -0.00003  -0.00008   0.00009
  21        6D+2        0.00043  -0.00082  -0.00050  -0.00116   0.00100
  22        6D-2       -0.00032  -0.00042  -0.00013  -0.00013  -0.00005
  23 2   C  1S          0.00449  -0.10394  -0.13115  -0.37980   0.36518
  24        2S          0.00371  -0.08542  -0.10790  -0.31252   0.30056
  25        2PX         0.00022   0.00009   0.00006   0.00013  -0.00013
  26        2PY        -0.00036   0.00005   0.00001   0.00009  -0.00007
  27        2PZ         0.00000   0.00003   0.00009   0.00026  -0.00026
  28        3S          0.00013  -0.00497  -0.00560  -0.01578   0.01463
  29        3PX        -0.00077  -0.00102  -0.00069  -0.00179   0.00164
  30        3PY         0.00135  -0.00059  -0.00033  -0.00107   0.00093
  31        3PZ        -0.00001   0.00017   0.00003   0.00007  -0.00005
  32        4S          0.00133   0.01312   0.01811   0.04280  -0.02833
  33        4PX         0.00204   0.00257   0.00563   0.01257  -0.00913
  34        4PY        -0.00213   0.00150   0.00237   0.00779  -0.00505
  35        4PZ        -0.00008  -0.00220  -0.00187  -0.00499   0.00430
  36        5S          0.00036  -0.00933   0.00203   0.02854  -0.05665
  37        5PX         0.00240  -0.00023  -0.00368   0.00725  -0.00964
  38        5PY        -0.00393  -0.00032   0.00679  -0.00104  -0.00786
  39        5PZ        -0.00004  -0.00037  -0.00047  -0.00116   0.00088
  40        6D 0        0.00002   0.00036   0.00031   0.00084  -0.00075
  41        6D+1       -0.00004  -0.00005  -0.00003  -0.00007   0.00007
  42        6D-1        0.00006  -0.00003  -0.00001  -0.00004   0.00004
  43        6D+2       -0.00087   0.00018   0.00014   0.00044  -0.00041
  44        6D-2        0.00053   0.00031   0.00028   0.00076  -0.00072
  45 3   C  1S          0.21533   0.00493   0.01864   0.04951  -0.05002
  46        2S          0.17716   0.00414   0.01533   0.04061  -0.04098
  47        2PX        -0.00001   0.00031   0.00025   0.00051  -0.00039
  48        2PY        -0.00006   0.00007  -0.00005  -0.00015   0.00020
  49        2PZ        -0.00015  -0.00001  -0.00001  -0.00009   0.00008
  50        3S          0.00925  -0.00045   0.00074   0.00277  -0.00295
  51        3PX        -0.00014  -0.00144  -0.00119  -0.00211   0.00146
  52        3PY         0.00112  -0.00052   0.00008   0.00053  -0.00086
  53        3PZ        -0.00006   0.00001  -0.00003   0.00016  -0.00011
  54        4S         -0.02190   0.00167  -0.01525  -0.02500   0.02144
  55        4PX        -0.00201   0.00531   0.00185   0.00377   0.00093
  56        4PY        -0.00574  -0.00299  -0.00686  -0.01287   0.00650
  57        4PZ         0.00312  -0.00017   0.00076   0.00160  -0.00205
  58        5S         -0.11273   0.00655   0.01823   0.00182   0.06165
  59        5PX        -0.00747  -0.00147  -0.00489   0.00950   0.00743
  60        5PY        -0.01597   0.00085   0.00139  -0.00327   0.00777
  61        5PZ         0.00028   0.00044   0.00029   0.00079   0.00001
  62        6D 0       -0.00036  -0.00004  -0.00015  -0.00046   0.00050
  63        6D+1        0.00003   0.00002  -0.00002  -0.00006   0.00006
  64        6D-1        0.00003  -0.00004   0.00001   0.00006  -0.00007
  65        6D+2        0.00055   0.00005   0.00013   0.00048  -0.00055
  66        6D-2       -0.00014  -0.00092  -0.00040  -0.00113   0.00082
  67 4   H  1S          0.00011   0.00001   0.00011   0.00025  -0.00018
  68        2S          0.00048  -0.00087  -0.00072  -0.00108  -0.00030
  69        3S          0.00004  -0.00100  -0.00151  -0.00281   0.00142
  70 5   C  1S         -0.00214   0.10300  -0.00031   0.01357   0.01850
  71        2S         -0.00175   0.08482  -0.00021   0.01115   0.01533
[...]
  55         V                 0.025354          0.308302
  56         V                 0.025359          0.308238
  57         V                 0.028873          0.340319
  58         V                 0.028885          0.340557
  59         V                 0.037397          0.209386
  60         V                 0.052693          0.333110
  61         V                 0.053096          0.247131
  62         V                 0.064037          0.245038
  63         V                 0.064053          0.244966
  64         V                 0.071314          0.365391
  65         V                 0.071326          0.365505
  66         V                 0.074151          0.400791
  67         V                 0.084343          0.347103
  68         V                 0.084366          0.347319
  69         V                 0.106991          0.417772
  70         V                 0.107002          0.417855
  71         V                 0.110288          0.366232
  72         V                 0.119409          0.270281
  73         V                 0.120749          0.355056
  74         V                 0.131663          0.348758
  75         V                 0.131678          0.348810
  76         V                 0.144507          0.348314
  77         V                 0.144513          0.348397
  78         V                 0.149127          0.610712
  79         V                 0.158662          0.607999
  80         V                 0.159892          0.672039
  81         V                 0.171008          0.443058
  82         V                 0.171291          0.751187
  83         V                 0.171302          0.750270
  84         V                 0.175573          0.334771
  85         V                 0.175600          0.336126
  86         V                 0.179130          0.408708
  87         V                 0.185040          0.711559
  88         V                 0.185100          0.712809
  89         V                 0.192306          0.627712
  90         V                 0.192384          0.624871
  91         V                 0.194313          0.648154
  92         V                 0.196222          0.776026
  93         V                 0.215638          1.008718
  94         V                 0.215651          1.008429
  95         V                 0.216453          0.816907
  96         V                 0.220236          0.711189
  97         V                 0.220240          0.710799
  98         V                 0.230383          0.737628
  99         V                 0.238065          0.598809
 100         V                 0.238132          0.598335
 101         V                 0.243657          0.825752
 102         V                 0.243679          0.825743
 103         V                 0.251546          0.615564
 104         V                 0.257187          0.847443
 105         V                 0.257192          0.848042
 106         V                 0.264959          1.143928
 107         V                 0.271732          1.030747
 108         V                 0.271768          1.030945
 109         V                 0.290820          0.743585
 110         V                 0.290863          0.745681
 111         V                 0.298661          0.883533
 112         V                 0.305233          1.231433
 113         V                 0.305397          1.234301
 114         V                 0.313313          0.632643
 115         V                 0.316312          1.054986
 116         V                 0.316319          1.054756
 117         V                 0.316472          1.052369
 118         V                 0.338259          0.963525
 119         V                 0.345967          0.862791
 120         V                 0.346019          0.861744
 121         V                 0.347908          0.761594
 122         V                 0.352132          0.970599
 123         V                 0.352139          0.970655
 124         V                 0.376908          0.708980
 125         V                 0.393606          0.995969
 126         V                 0.393749          0.995616
 127         V                 0.394822          1.081084
 128         V                 0.403240          0.939829
 129         V                 0.403290          0.939122
 130         V                 0.417525          1.895435
 131         V                 0.417868          1.383042
 132         V                 0.441787          1.346575
 133         V                 0.441803          1.346781
 134         V                 0.461058          1.263466
 135         V                 0.467192          1.327683
 136         V                 0.471251          1.155607
 137         V                 0.471273          1.155413
 138         V                 0.479930          1.145780
 139         V                 0.508101          1.213953
 140         V                 0.508104          1.214534
 141         V                 0.532875          1.799534
 142         V                 0.538333          1.301682
 143         V                 0.538381          1.301264
 144         V                 0.543415          1.216460
 145         V                 0.573695          1.820280
 146         V                 0.573742          1.820154
 147         V                 0.625905          1.469237
 148         V                 0.638112          1.582622
 149         V                 0.638134          1.582526
 150         V                 0.664626          1.691038
 151         V                 0.673614          1.910334
 152         V                 0.673637          1.910141
 153         V                 0.681291          1.778205
 154         V                 0.688383          1.814375
 155         V                 0.688400          1.814577
 156         V                 0.703996          1.770875
 157         V                 0.704009          1.771239
 158         V                 0.707015          1.842686
 159         V                 0.715449          1.837005
 160         V                 0.730331          2.015220
 161         V                 0.730355          2.015061
 162         V                 0.744311          2.041005
 163         V                 0.744336          2.041065
 164         V                 0.755792          1.846062
 165         V                 0.759518          2.268673
 166         V                 0.775402          2.000662
 167         V                 0.775444          2.004895
 168         V                 0.775618          2.207755
 169         V                 0.783459          2.331420
 170         V                 0.783477          2.331359
 171         V                 0.787009          2.126877
 172         V                 0.796995          2.409949
 173         V                 0.806115          1.709313
 174         V                 0.819808          2.845631
 175         V                 0.819898          2.845049
 176         V                 0.833684          2.210218
 177         V                 0.833695          2.210150
 178         V                 0.844904          2.442660
 179         V                 0.850501          1.845205
 180         V                 0.871748          2.104808
 181         V                 0.871764          2.105498
 182         V                 0.875956          2.688864
 183         V                 0.875981          2.689313
 184         V                 0.904835          1.901087
 185         V                 0.904862          1.901087
 186         V                 0.910175          2.941790
 187         V                 0.938994          1.816981
 188         V                 0.939013          1.816939
 189         V                 0.965953          1.685748
 190         V                 0.965970          1.685823
 191         V                 0.968190          1.912298
 192         V                 0.983502          1.726909
 193         V                 0.995944          2.074068
 194         V                 1.005041          1.882268
 195         V                 1.005071          1.882178
 196         V                 1.057896          2.223244
 197         V                 1.081522          2.076906
 198         V                 1.081570          2.076935
 199         V                 1.084321          1.988467
 200         V                 1.102435          1.893399
 201         V                 1.112193          2.118089
 202         V                 1.112228          2.118175
 203         V                 1.149213          2.172864
 204         V                 1.149251          2.172924
 205         V                 1.156524          2.159557
 206         V                 1.179710          2.278029
 207         V                 1.179760          2.277990
 208         V                 1.241557          2.174736
 209         V                 1.241590          2.174854
 210         V                 1.242353          2.487807
 211         V                 1.261973          2.397274
 212         V                 1.307277          2.513217
 213         V                 1.307312          2.513221
 214         V                 1.381951          2.690180
 215         V                 1.381967          2.690193
 216         V                 1.404802          2.626396
 217         V                 1.415105          2.543218
 218         V                 1.415137          2.543356
 219         V                 1.420337          2.727664
 220         V                 1.487125          2.564598
 221         V                 1.487161          2.564406
 222         V                 1.491124          2.605108
 223         V                 1.502615          2.550562
 224         V                 1.502633          2.550217
 225         V                 1.518023          2.702775
 226         V                 1.562121          2.824202
 227         V                 1.562201          2.824440
 228         V                 1.576580          2.676484
 229         V                 1.606319          2.728720
 230         V                 1.606342          2.728660
 231         V                 1.609271          2.637326
 232         V                 1.674813          2.821745
 233         V                 1.674825          2.821654
 234         V                 1.726726          3.076722
 235         V                 1.759309          3.013882
 236         V                 1.794649          3.137690
 237         V                 1.794654          3.137111
 238         V                 1.794791          3.041962
 239         V                 1.798212          3.160131
 240         V                 1.834391          3.098241
 241         V                 1.834408          3.098162
 242         V                 1.866724          3.247494
 243         V                 1.872529          3.155524
 244         V                 1.872573          3.155419
 245         V                 1.899238          3.177479
 246         V                 1.899265          3.177758
 247         V                 1.931603          3.142232
 248         V                 1.943946          3.239884
 249         V                 1.944039          3.239991
 250         V                 1.983860          3.434935
 251         V                 2.021811          3.474602
 252         V                 2.034674          3.319728
 253         V                 2.034730          3.320183
 254         V                 2.051946          3.912822
 255         V                 2.051990          3.913274
 256         V                 2.058650          3.902631
 257         V                 2.058676          3.902332
 258         V                 2.132889          3.361383
 259         V                 2.143200          3.810526
 260         V                 2.180944          3.856593
 261         V                 2.318098          4.030645
 262         V                 2.318115          4.030295
 263         V                 2.333019          4.301094
 264         V                 2.333061          4.301525
 265         V                 2.358838          4.099536
 266         V                 2.360591          3.590998
 267         V                 2.360608          3.590808
 268         V                 2.424810          4.613079
 269         V                 2.455100          4.418675
 270         V                 2.455210          4.418783
 271         V                 2.484198          4.725156
 272         V                 2.484253          4.725213
 273         V                 2.517476          4.554174
 274         V                 2.525220          4.642992
 275         V                 2.594738          5.120976
 276         V                 2.627374          5.088312
 277         V                 2.627387          5.088325
 278         V                 2.682593          5.049345
 279         V                 2.687180          5.125011
 280         V                 2.687212          5.125376
 281         V                 2.721058          5.427869
 282         V                 2.736240          5.104666
 283         V                 2.736297          5.104883
 284         V                 2.786870          5.367194
 285         V                 2.800425          5.235344
 286         V                 2.800467          5.235787
 287         V                 2.851936          6.015347
 288         V                 2.876669          5.228311
 289         V                 2.876720          5.228321
 290         V                 2.895227          5.489196
 291         V                 2.945544          6.071414
 292         V                 2.945557          6.071536
 293         V                 2.988481          5.354988
 294         V                 2.988548          5.354742
 295         V                 3.090324          5.553592
 296         V                 3.163272          6.038692
 297         V                 3.163296          6.038499
 298         V                 3.217685          7.247467
 299         V                 3.217796          7.247800
 300         V                 3.222920          6.042569
 301         V                 3.281148          7.317478
 302         V                 3.292608          6.639576
 303         V                 3.318499          6.918523
 304         V                 3.318521          6.918513
 305         V                 3.343624          5.584539
 306         V                 3.371282          6.767234
 307         V                 3.371309          6.767132
 308         V                 3.371735          6.641348
 309         V                 3.400609          7.238072
 310         V                 3.400672          7.238097
 311         V                 3.412338          6.496880
 312         V                 3.501297          5.648888
 313         V                 3.501408          5.649131
 314         V                 3.528570          6.537052
 315         V                 3.624329          6.484867
 316         V                 3.624334          6.484912
 317         V                 3.705710          7.133050
 318         V                 3.705786          7.133523
 319         V                 3.722057          7.095221
 320         V                 3.774830          7.109668
 321         V                 3.781792          7.150603
 322         V                 3.781866          7.150641
 323         V                 3.900048          7.326848
 324         V                 3.953487          7.722555
 325         V                 4.011791          7.341438
 326         V                 4.011842          7.341091
 327         V                 4.074669          7.169574
 328         V                 4.074710          7.169402
 329         V                 4.290623          7.687211
 330         V                 4.290721          7.687450
 331         V                 4.382856          7.293502
 332         V                 4.706252          7.809217
 333         V                 4.784011          7.927585
 334         V                 4.784079          7.927373
 335         V                23.341583         60.125778
 336         V                23.808771         60.293027
 337         V                23.808985         60.293136
 338         V                24.085723         60.388702
 339         V                24.085750         60.388723
 340         V                24.112634         60.414978
 341         V                24.129688         60.407692
 342         V                24.173197         60.441245
 343         V                24.173260         60.441285
 344         V                24.191973         60.457520
 345         V                24.211992         60.408659
 346         V                24.229361         60.443185
 347         V                24.229422         60.443286
 Total kinetic energy from orbitals= 5.134684228130D+02
 1\1\GINC-HOGWARTS\SP\RB3LYP\6-311+G(d)\C13H22\ANUJA\04-May-2014\0\\# B
 3LYP/6-311+G* NMR=GIAO POP=FULL SCF(MAXCYCLE=512)\\-------------------
 ------------------------------- # Center 1\\0,1\C,0,-2.44218,-0.02117,
 0.\C,0,-2.44218,-1.41222,0.\C,0,-1.23667,-2.10618,0.\H,0,-1.24024,-3.1
 9153,0.\C,0,0.00077,-1.42007,0.\C,0,-0.0001,-0.00006,0.\C,0,-1.23029,0
 .70917,0.\C,0,-1.20557,2.12386,0.\C,0,-0.00173,2.82086,0.\C,0,1.20295,
 2.12547,0.\C,0,1.22942,0.71084,0.\C,0,2.44229,-0.01764,0.\C,0,2.44394,
 -1.40866,0.\C,0,1.23924,-2.10428,0.\H,0,1.24439,-3.1896,0.\H,0,3.38234
 ,-1.94986,0.\H,0,3.38372,0.5223,0.\H,0,2.1402,2.67269,0.\H,0,-0.00238,
 3.90415,0.\H,0,-2.14363,2.66972,0.\H,0,-3.37992,-1.95451,0.\H,0,-3.384
 67,0.51701,0.\H,0,1.22942,0.71084,-1.\H,0,0.00077,-1.42007,-1.\H,0,-0.
 0001,-0.00006,-1.\H,0,-1.23029,0.70917,-1.\H,0,-2.51807,0.02168,-0.996
 2\H,0,-2.51763,-1.45585,-0.99619\H,0,-1.23739,-2.19333,-0.99619\H,0,2.
 51812,0.02532,-0.9962\H,0,2.51945,-1.45218,-0.99619\H,0,1.24007,-2.191
 43,-0.99619\H,0,-1.28069,2.16806,-0.9962\H,0,-0.00178,2.90802,-0.9962\
 H,0,1.27801,2.16977,-0.9962\Bq,0,-2.44218,-0.02117,1.7\Bq,0,-2.34218,-
 0.0203,1.7\Bq,0,-2.24219,-0.01944,1.7\Bq,0,-2.14219,-0.01857,1.7\Bq,0,
 -2.04219,-0.0177,1.7\Bq,0,-1.9422,-0.01684,1.7\Bq,0,-1.8422,-0.01597,1
 .7\Bq,0,-1.74221,-0.0151,1.7\Bq,0,-1.64221,-0.01424,1.7\Bq,0,-1.54221,
 -0.01337,1.7\Bq,0,-1.44222,-0.0125,1.7\Bq,0,-1.34222,-0.01163,1.7\Bq,0
 ,-1.24222,-0.01077,1.7\Bq,0,-1.14223,-0.0099,1.7\Bq,0,-1.04223,-0.0090
 3,1.7\Bq,0,-0.94224,-0.00817,1.7\Bq,0,-0.84224,-0.0073,1.7\Bq,0,-0.742
 24,-0.00643,1.7\Bq,0,-0.64225,-0.00557,1.7\Bq,0,-0.54225,-0.0047,1.7\B
 q,0,-0.44225,-0.00383,1.7\Bq,0,-0.34226,-0.00297,1.7\Bq,0,-0.24226,-0.
 0021,1.7\Bq,0,-0.14227,-0.00123,1.7\Bq,0,0.,0.,1.7\Bq,0,0.1,-0.00072,1
 .7\Bq,0,0.19999,-0.00144,1.7\Bq,0,0.29999,-0.00217,1.7\Bq,0,0.39999,-0
 .00289,1.7\Bq,0,0.49999,-0.00361,1.7\Bq,0,0.59998,-0.00433,1.7\Bq,0,0.
 69998,-0.00506,1.7\Bq,0,0.79998,-0.00578,1.7\Bq,0,0.89998,-0.0065,1.7\
 Bq,0,0.99997,-0.00722,1.7\Bq,0,1.09997,-0.00794,1.7\Bq,0,1.19997,-0.00
 867,1.7\Bq,0,1.29997,-0.00939,1.7\Bq,0,1.39996,-0.01011,1.7\Bq,0,1.499
 96,-0.01083,1.7\Bq,0,1.59996,-0.01156,1.7\Bq,0,1.69996,-0.01228,1.7\Bq
 ,0,1.79995,-0.013,1.7\Bq,0,1.89995,-0.01372,1.7\Bq,0,1.99995,-0.01444,
 1.7\Bq,0,2.09995,-0.01517,1.7\Bq,0,2.19994,-0.01589,1.7\Bq,0,2.29994,-
 0.01661,1.7\\Version=EM64L-G09RevD.01\HF=-507.5190794\RMSD=5.254e-09\D
 ipole=-0.0000999,0.0000946,-2.1294488\Quadrupole=-1.3066109,-1.3061223
 ,2.6127332,0.000835,-0.0000107,0.0002289\PG=C01 [X(C13H22)]\\@


 TO BEHOLD HARMS OF OUR OWN HANDS DOING,
 WHERE NONE BESIDE US WROUGHT,
 CAUSES SHARP RUING...

                                         SOPHOCLES
 Job cpu time:       0 days  0 hours 45 minutes 53.8 seconds.
 File lengths (MBytes):  RWF=     72 Int=      0 D2E=      0 Chk=      8 Scr=      1
 Normal termination of Gaussian 09 at Sun May  4 19:27:50 2014.
