 Entering Gaussian System, Link 0=/usr/local/g09/g09
 Input=/home/anuja/input/phenalene-y-center1.in
 Output=/home/anuja/output/phenalene-y-center1.log
 Initial command:
 /usr/local/g09-D.01/g09/l1.exe /gtmp/Gau-5133.inp -scrdir=/gtmp/
 Entering Link 1 = /usr/local/g09-D.01/g09/l1.exe PID=      5135.
  
 Copyright (c) 1988,1990,1992,1993,1995,1998,2003,2009,2013,
            Gaussian, Inc.  All Rights Reserved.
  
 This is part of the Gaussian(R) 09 program.  It is based on
 the Gaussian(R) 03 system (copyright 2003, Gaussian, Inc.),
 the Gaussian(R) 98 system (copyright 1998, Gaussian, Inc.),
 the Gaussian(R) 94 system (copyright 1995, Gaussian, Inc.),
 the Gaussian 92(TM) system (copyright 1992, Gaussian, Inc.),
 the Gaussian 90(TM) system (copyright 1990, Gaussian, Inc.),
 the Gaussian 88(TM) system (copyright 1988, Gaussian, Inc.),
 the Gaussian 86(TM) system (copyright 1986, Carnegie Mellon
 University), and the Gaussian 82(TM) system (copyright 1983,
 Carnegie Mellon University). Gaussian is a federally registered
 trademark of Gaussian, Inc.
  
 This software contains proprietary and confidential information,
 including trade secrets, belonging to Gaussian, Inc.
  
 This software is provided under written license and may be
 used, copied, transmitted, or stored only in accord with that
 written license.
  
 The following legend is applicable only to US Government
 contracts under FAR:
  
                    RESTRICTED RIGHTS LEGEND
  
 Use, reproduction and disclosure by the US Government is
 subject to restrictions as set forth in subparagraphs (a)
 and (c) of the Commercial Computer Software - Restricted
 Rights clause in FAR 52.227-19.
  
 Gaussian, Inc.
 340 Quinnipiac St., Bldg. 40, Wallingford CT 06492
  
  
 ---------------------------------------------------------------
 Warning -- This program may not be used in any manner that
 competes with the business of Gaussian, Inc. or will provide
 assistance to any competitor of Gaussian, Inc.  The licensee
 of this program is prohibited from giving any competitor of
 Gaussian, Inc. access to this program.  By using this program,
 the user acknowledges that Gaussian, Inc. is engaged in the
 business of creating and licensing software in the field of
 computational chemistry and represents and warrants to the
 licensee that it is not a competitor of Gaussian, Inc. and that
 it will not use this program in any manner prohibited above.
 ---------------------------------------------------------------
  

 Cite this work as:
 Gaussian 09, Revision D.01,
 M. J. Frisch, G. W. Trucks, H. B. Schlegel, G. E. Scuseria, 
 M. A. Robb, J. R. Cheeseman, G. Scalmani, V. Barone, B. Mennucci, 
 G. A. Petersson, H. Nakatsuji, M. Caricato, X. Li, H. P. Hratchian, 
 A. F. Izmaylov, J. Bloino, G. Zheng, J. L. Sonnenberg, M. Hada, 
 M. Ehara, K. Toyota, R. Fukuda, J. Hasegawa, M. Ishida, T. Nakajima, 
 Y. Honda, O. Kitao, H. Nakai, T. Vreven, J. A. Montgomery, Jr., 
 J. E. Peralta, F. Ogliaro, M. Bearpark, J. J. Heyd, E. Brothers, 
 K. N. Kudin, V. N. Staroverov, T. Keith, R. Kobayashi, J. Normand, 
 K. Raghavachari, A. Rendell, J. C. Burant, S. S. Iyengar, J. Tomasi, 
 M. Cossi, N. Rega, J. M. Millam, M. Klene, J. E. Knox, J. B. Cross, 
 V. Bakken, C. Adamo, J. Jaramillo, R. Gomperts, R. E. Stratmann, 
 O. Yazyev, A. J. Austin, R. Cammi, C. Pomelli, J. W. Ochterski, 
 R. L. Martin, K. Morokuma, V. G. Zakrzewski, G. A. Voth, 
 P. Salvador, J. J. Dannenberg, S. Dapprich, A. D. Daniels, 
 O. Farkas, J. B. Foresman, J. V. Ortiz, J. Cioslowski, 
 and D. J. Fox, Gaussian, Inc., Wallingford CT, 2013.
 
 ******************************************
 Gaussian 09:  EM64L-G09RevD.01 24-Apr-2013
                 4-May-2014 
 ******************************************
 %NPROC=6
 Will use up to    6 processors via shared memory.
 %MEM=6024MB
 ----------------------------------------------------
 # B3LYP/6-311+G* NMR=GIAO POP=FULL SCF(MAXCYCLE=512)
 ----------------------------------------------------
 1/38=1/1;
 2/12=2,17=6,18=5,40=1/2;
 3/5=4,6=6,7=11,11=2,16=1,25=1,30=1,74=-5/1,2,8,3;
 4//1;
 5/5=2,7=512,38=5/2;
 8/6=1,10=90,11=11/1;
 10/13=100,45=16/2;
 6/7=3,28=1/1;
 99/9=1/99;
 --------------------------------------------
 Compund 12 from Renana's XY Paper # Center 1
 --------------------------------------------
 Symbolic Z-matrix:
 Charge =  1 Multiplicity = 1
 6                    -2.81984  -0.26662   0. 
 6                    -3.40918  -1.52665   0. 
 6                    -2.61122  -2.666     0. 
 1                    -3.0743   -3.64761   0. 
 6                    -1.19965  -2.56878   0. 
 6                    -0.59882  -1.28214   0. 
 6                    -1.41266  -0.11851   0. 
 6                    -0.79091   1.15247   0. 
 6                     0.59485   1.27379   0. 
 6                    -0.3677   -3.71325   0. 
 1                    -0.82286  -4.69853   0. 
 6                     0.81609  -1.15911   0. 
 6                     1.01825  -3.59354   0. 
 1                     1.63897  -4.48134   0. 
 6                     1.60608  -2.33283   0. 
 1                     2.68761  -2.2426    0. 
 6                     1.39145   0.13351   0. 
 1                     2.47226   0.23209   0. 
 1                    -4.48836  -1.62058   0. 
 1                    -3.44555   0.62018   0. 
 1                    -1.40935   2.04434   0. 
 1                     1.05321   2.25532   0. 
 bq                   -1.19965  -2.56878  -1.7 
 bq                   -1.15734  -2.47817  -1.7 
 bq                   -1.11503  -2.38756  -1.7 
 bq                   -1.07272  -2.29695  -1.7 
 bq                   -1.0304   -2.20635  -1.7 
 bq                   -0.98809  -2.11574  -1.7 
 bq                   -0.94578  -2.02513  -1.7 
 bq                   -0.90347  -1.93452  -1.7 
 bq                   -0.86116  -1.84392  -1.7 
 bq                   -0.81884  -1.75331  -1.7 
 bq                   -0.77653  -1.6627   -1.7 
 bq                   -0.73422  -1.57209  -1.7 
 bq                   -0.69191  -1.48149  -1.7 
 bq                   -0.64959  -1.39088  -1.7 
 bq                   -0.59882  -1.28214  -1.7 
 bq                   -0.5565   -1.19154  -1.7 
 bq                   -0.51418  -1.10093  -1.7 
 bq                   -0.47187  -1.01033  -1.7 
 bq                   -0.42955  -0.91972  -1.7 
 bq                   -0.38723  -0.82912  -1.7 
 bq                   -0.34492  -0.73851  -1.7 
 bq                   -0.3026   -0.64791  -1.7 
 bq                   -0.26028  -0.5573   -1.7 
 bq                   -0.21797  -0.46669  -1.7 
 bq                   -0.17565  -0.37609  -1.7 
 bq                   -0.13333  -0.28548  -1.7 
 bq                   -0.09102  -0.19488  -1.7 
 bq                   -0.0487   -0.10427  -1.7 
 bq                    0.        0.       -1.7 
 bq                    0.04231   0.09061  -1.7 
 bq                    0.08463   0.18121  -1.7 
 bq                    0.12694   0.27182  -1.7 
 bq                    0.16925   0.36243  -1.7 
 bq                    0.21156   0.45303  -1.7 
 bq                    0.25388   0.54364  -1.7 
 bq                    0.29619   0.63425  -1.7 
 bq                    0.3385    0.72486  -1.7 
 bq                    0.38082   0.81546  -1.7 
 bq                    0.42313   0.90607  -1.7 
 bq                    0.46544   0.99668  -1.7 
 bq                    0.50775   1.08728  -1.7 
 bq                    0.55007   1.17789  -1.7 
 
 Symmetry turned off:
 Cannot cope with ghost atoms or with translation vectors.
 Stoichiometry    C13H9(1+)
 Framework group  C1[X(C13H9)]
 NUMDOF-- NAT=    22 NAtoms=    64
 Deg. of freedom     0
 Full point group                 C1      NOp   1
                          Input orientation:                          
 ---------------------------------------------------------------------
 Center     Atomic      Atomic             Coordinates (Angstroms)
 Number     Number       Type             X           Y           Z
 ---------------------------------------------------------------------
      1          6           0       -2.819840   -0.266620    0.000000
      2          6           0       -3.409180   -1.526650    0.000000
      3          6           0       -2.611220   -2.666000    0.000000
      4          1           0       -3.074300   -3.647610    0.000000
      5          6           0       -1.199650   -2.568780    0.000000
      6          6           0       -0.598820   -1.282140    0.000000
      7          6           0       -1.412660   -0.118510    0.000000
      8          6           0       -0.790910    1.152470    0.000000
      9          6           0        0.594850    1.273790    0.000000
     10          6           0       -0.367700   -3.713250    0.000000
     11          1           0       -0.822860   -4.698530    0.000000
     12          6           0        0.816090   -1.159110    0.000000
     13          6           0        1.018250   -3.593540    0.000000
     14          1           0        1.638970   -4.481340    0.000000
     15          6           0        1.606080   -2.332830    0.000000
     16          1           0        2.687610   -2.242600    0.000000
     17          6           0        1.391450    0.133510    0.000000
     18          1           0        2.472260    0.232090    0.000000
     19          1           0       -4.488360   -1.620580    0.000000
     20          1           0       -3.445550    0.620180    0.000000
     21          1           0       -1.409350    2.044340    0.000000
     22          1           0        1.053210    2.255320    0.000000
     23          0           0       -1.199650   -2.568780   -1.700000
     24          0           0       -1.157340   -2.478170   -1.700000
     25          0           0       -1.115030   -2.387560   -1.700000
     26          0           0       -1.072720   -2.296950   -1.700000
     27          0           0       -1.030400   -2.206350   -1.700000
     28          0           0       -0.988090   -2.115740   -1.700000
     29          0           0       -0.945780   -2.025130   -1.700000
     30          0           0       -0.903470   -1.934520   -1.700000
     31          0           0       -0.861160   -1.843920   -1.700000
     32          0           0       -0.818840   -1.753310   -1.700000
     33          0           0       -0.776530   -1.662700   -1.700000
     34          0           0       -0.734220   -1.572090   -1.700000
     35          0           0       -0.691910   -1.481490   -1.700000
     36          0           0       -0.649590   -1.390880   -1.700000
     37          0           0       -0.598820   -1.282140   -1.700000
     38          0           0       -0.556500   -1.191540   -1.700000
     39          0           0       -0.514180   -1.100930   -1.700000
     40          0           0       -0.471870   -1.010330   -1.700000
     41          0           0       -0.429550   -0.919720   -1.700000
     42          0           0       -0.387230   -0.829120   -1.700000
     43          0           0       -0.344920   -0.738510   -1.700000
     44          0           0       -0.302600   -0.647910   -1.700000
     45          0           0       -0.260280   -0.557300   -1.700000
     46          0           0       -0.217970   -0.466690   -1.700000
     47          0           0       -0.175650   -0.376090   -1.700000
     48          0           0       -0.133330   -0.285480   -1.700000
     49          0           0       -0.091020   -0.194880   -1.700000
     50          0           0       -0.048700   -0.104270   -1.700000
     51          0           0        0.000000    0.000000   -1.700000
     52          0           0        0.042310    0.090610   -1.700000
     53          0           0        0.084630    0.181210   -1.700000
     54          0           0        0.126940    0.271820   -1.700000
     55          0           0        0.169250    0.362430   -1.700000
     56          0           0        0.211560    0.453030   -1.700000
     57          0           0        0.253880    0.543640   -1.700000
     58          0           0        0.296190    0.634250   -1.700000
     59          0           0        0.338500    0.724860   -1.700000
     60          0           0        0.380820    0.815460   -1.700000
     61          0           0        0.423130    0.906070   -1.700000
     62          0           0        0.465440    0.996680   -1.700000
     63          0           0        0.507750    1.087280   -1.700000
     64          0           0        0.550070    1.177890   -1.700000
 ---------------------------------------------------------------------
 Rotational constants (GHZ):      1.1163640      1.1161149      0.5581197
 Standard basis: 6-311+G(d) (5D, 7F)
 Warning:  center  23 has no basis functions!
 Warning:  center  24 has no basis functions!
 Warning:  center  25 has no basis functions!
 Warning:  center  26 has no basis functions!
 Warning:  center  27 has no basis functions!
 Warning:  center  28 has no basis functions!
 Warning:  center  29 has no basis functions!
 Warning:  center  30 has no basis functions!
 Warning:  center  31 has no basis functions!
 Warning:  center  32 has no basis functions!
 Warning:  center  33 has no basis functions!
 Warning:  center  34 has no basis functions!
 Warning:  center  35 has no basis functions!
 Warning:  center  36 has no basis functions!
 Warning:  center  37 has no basis functions!
 Warning:  center  38 has no basis functions!
 Warning:  center  39 has no basis functions!
 Warning:  center  40 has no basis functions!
 Warning:  center  41 has no basis functions!
 Warning:  center  42 has no basis functions!
 Warning:  center  43 has no basis functions!
 Warning:  center  44 has no basis functions!
 Warning:  center  45 has no basis functions!
 Warning:  center  46 has no basis functions!
 Warning:  center  47 has no basis functions!
 Warning:  center  48 has no basis functions!
 Warning:  center  49 has no basis functions!
 Warning:  center  50 has no basis functions!
 Warning:  center  51 has no basis functions!
 Warning:  center  52 has no basis functions!
 Warning:  center  53 has no basis functions!
 Warning:  center  54 has no basis functions!
 Warning:  center  55 has no basis functions!
 Warning:  center  56 has no basis functions!
 Warning:  center  57 has no basis functions!
 Warning:  center  58 has no basis functions!
 Warning:  center  59 has no basis functions!
 Warning:  center  60 has no basis functions!
 Warning:  center  61 has no basis functions!
 Warning:  center  62 has no basis functions!
 Warning:  center  63 has no basis functions!
 Warning:  center  64 has no basis functions!
   313 basis functions,   513 primitive gaussians,   326 cartesian basis functions
    43 alpha electrons       43 beta electrons
       nuclear repulsion energy       698.4587514679 Hartrees.
 NAtoms=   64 NActive=   64 NUniq=   64 SFac= 1.00D+00 NAtFMM=   60 NAOKFM=T Big=T
 Integral buffers will be    131072 words long.
 Raffenetti 2 integral format.
 Two-electron integral symmetry is turned off.
 One-electron integrals computed using PRISM.
 NBasis=   313 RedAO= T EigKep=  1.32D-06  NBF=   313
 NBsUse=   308 1.00D-06 EigRej=  8.88D-07 NBFU=   308
 ExpMin= 4.38D-02 ExpMax= 4.56D+03 ExpMxC= 6.82D+02 IAcc=2 IRadAn=         4 AccDes= 0.00D+00
 Harris functional with IExCor=  402 and IRadAn=       4 diagonalized for initial guess.
 HarFok:  IExCor=  402 AccDes= 0.00D+00 IRadAn=         4 IDoV= 1 UseB2=F ITyADJ=14
 ICtDFT=  3500011 ScaDFX=  1.000000  1.000000  1.000000  1.000000
 FoFCou: FMM=F IPFlag=           0 FMFlag=      100000 FMFlg1=        2001
         NFxFlg=           0 DoJE=T BraDBF=F KetDBF=T FulRan=T
         wScrn=  0.000000 ICntrl=     500 IOpCl=  0 I1Cent=   200000004 NGrid=           0
         NMat0=    1 NMatS0=      1 NMatT0=    0 NMatD0=    1 NMtDS0=    0 NMtDT0=    0
 Symmetry not used in FoFCou.
 Requested convergence on RMS density matrix=1.00D-08 within 512 cycles.
 Requested convergence on MAX density matrix=1.00D-06.
 Requested convergence on             energy=1.00D-06.
 No special actions if energy rises.
 SCF Done:  E(RB3LYP) =  -500.682079539     A.U. after   13 cycles
            NFock= 13  Conv=0.20D-08     -V/T= 2.0044
 DoSCS=F DFT=T ScalE2(SS,OS)=  1.000000  1.000000
 Range of M.O.s used for correlation:     1   308
 NBasis=   313 NAE=    43 NBE=    43 NFC=     0 NFV=     0
 NROrb=    308 NOA=    43 NOB=    43 NVA=   265 NVB=   265

 **** Warning!!: The largest alpha MO coefficient is  0.40847265D+03

          Differentiating once with respect to magnetic field using GIAOs.
          Electric field/nuclear overlap derivatives assumed to be zero.
 FoFCou: FMM=F IPFlag=           0 FMFlag=      100000 FMFlg1=        2001
         NFxFlg=           0 DoJE=F BraDBF=F KetDBF=T FulRan=T
         wScrn=  0.000000 ICntrl=    6100 IOpCl=  0 I1Cent=           7 NGrid=          64
         NMat0=    1 NMatS0=      1 NMatT0=    0 NMatD0=    1 NMtDS0=    0 NMtDT0=    0
 Symmetry not used in FoFCou.
 FoFJK:  IHMeth= 1 ICntrl=    6127 DoSepK=F KAlg= 0 I1Cent=   0 FoldK=F
 IRaf=         1 NMat=   1 IRICut=       1 DoRegI=T DoRafI=F ISym2E= 0.
          There are     3 degrees of freedom in the 1st order CPHF.  IDoFFX=0 NUNeed=     3.
      3 vectors produced by pass  0 Test12= 3.80D-13 3.33D-08 XBig12= 9.15D+02 1.62D+01.
 AX will form     3 AO Fock derivatives at one time.
      3 vectors produced by pass  1 Test12= 3.80D-13 3.33D-08 XBig12= 1.87D+00 9.20D-01.
      3 vectors produced by pass  2 Test12= 3.80D-13 3.33D-08 XBig12= 1.95D-02 8.15D-02.
      3 vectors produced by pass  3 Test12= 3.80D-13 3.33D-08 XBig12= 3.78D-05 1.79D-03.
      3 vectors produced by pass  4 Test12= 3.80D-13 3.33D-08 XBig12= 2.90D-07 2.86D-04.
      3 vectors produced by pass  5 Test12= 3.80D-13 3.33D-08 XBig12= 1.31D-09 1.34D-05.
      3 vectors produced by pass  6 Test12= 3.80D-13 3.33D-08 XBig12= 4.35D-12 6.34D-07.
 InvSVY:  IOpt=1 It=  1 EMax= 3.55D-15
 Solved reduced A of dimension    21 with     3 vectors.
 Calculating GIAO nuclear magnetic shielding tensors.
 SCF GIAO Magnetic shielding tensor (ppm):
      1  C    Isotropic =    23.7832   Anisotropy =   202.2952
   XX=   -42.3270   YX=    34.5828   ZX=     0.0000
   XY=    40.9695   YY=   -44.9700   ZY=     0.0000
   XZ=     0.0000   YZ=     0.0000   ZZ=   158.6467
   Eigenvalues:   -81.4478    -5.8492   158.6467
      2  C    Isotropic =    46.5502   Anisotropy =   188.9813
   XX=   -59.3155   YX=    -7.5074   ZX=     0.0000
   XY=    -7.5029   YY=    26.4285   ZY=     0.0000
   XZ=     0.0000   YZ=     0.0000   ZZ=   172.5377
   Eigenvalues:   -59.9675    27.0805   172.5377
      3  C    Isotropic =    23.8541   Anisotropy =   202.7894
   XX=   -29.6192   YX=   -32.1172   ZX=     0.0000
   XY=   -38.3087   YY=   -57.8655   ZY=     0.0000
   XZ=     0.0000   YZ=     0.0000   ZZ=   159.0470
   Eigenvalues:   -81.6819    -5.8028   159.0470
      4  H    Isotropic =    22.9145   Anisotropy =     7.4648
   XX=    26.9209   YX=    -2.1288   ZX=     0.0000
   XY=    -2.1494   YY=    23.1743   ZY=     0.0000
   XZ=     0.0000   YZ=     0.0000   ZZ=    18.6484
   Eigenvalues:    18.6484    22.2042    27.8910
      5  C    Isotropic =    45.9618   Anisotropy =   207.2204
   XX=   -22.5173   YX=     0.1911   ZX=     0.0000
   XY=    -0.3441   YY=   -23.7061   ZY=     0.0000
   XZ=     0.0000   YZ=     0.0000   ZZ=   184.1087
   Eigenvalues:   -23.7110   -22.5124   184.1087
      6  C    Isotropic =    54.4107   Anisotropy =   209.8236
   XX=   -15.5691   YX=     0.0622   ZX=     0.0000
   XY=     0.0305   YY=   -15.4918   ZY=     0.0000
   XZ=     0.0000   YZ=     0.0000   ZZ=   194.2931
   Eigenvalues:   -15.5908   -15.4701   194.2931
      7  C    Isotropic =    47.8391   Anisotropy =   212.0739
   XX=   -22.4639   YX=    -0.2082   ZX=     0.0000
   XY=     0.2897   YY=   -23.2405   ZY=     0.0000
   XZ=     0.0000   YZ=     0.0000   ZZ=   189.2217
   Eigenvalues:   -23.2426   -22.4618   189.2217
      8  C    Isotropic =    24.1738   Anisotropy =   202.9386
   XX=   -20.1002   YX=    32.8399   ZX=     0.0000
   XY=    26.6509   YY=   -66.8446   ZY=     0.0000
   XZ=     0.0000   YZ=     0.0000   ZZ=   159.4662
   Eigenvalues:   -81.3016    -5.6432   159.4662
      9  C    Isotropic =    46.3747   Anisotropy =   188.1255
   XX=    11.7090   YX=   -33.5034   ZX=     0.0000
   XY=   -33.5248   YY=   -44.3767   ZY=     0.0000
   XZ=     0.0000   YZ=     0.0000   ZZ=   171.7917
   Eigenvalues:   -60.0328    27.3651   171.7917
     10  C    Isotropic =    23.9158   Anisotropy =   202.6566
   XX=   -11.4000   YX=   -23.0346   ZX=     0.0000
   XY=   -17.1119   YY=   -75.8728   ZY=     0.0000
   XZ=     0.0000   YZ=     0.0000   ZZ=   159.0203
   Eigenvalues:   -81.6116    -5.6611   159.0203
     11  H    Isotropic =    22.8874   Anisotropy =     7.4332
   XX=    26.7868   YX=    -2.1932   ZX=     0.0000
   XY=    -2.2136   YY=    23.2455   ZY=     0.0000
   XZ=     0.0000   YZ=     0.0000   ZZ=    18.6298
   Eigenvalues:    18.6298    22.1895    27.8428
     12  C    Isotropic =    48.3520   Anisotropy =   210.4282
   XX=   -20.5792   YX=     0.1837   ZX=     0.0000
   XY=     0.0105   YY=   -23.0022   ZY=     0.0000
   XZ=     0.0000   YZ=     0.0000   ZZ=   188.6374
   Eigenvalues:   -23.0061   -20.5753   188.6374
     13  C    Isotropic =    46.6711   Anisotropy =   189.3888
   XX=    -1.5623   YX=    41.1917   ZX=     0.0000
   XY=    41.0799   YY=   -31.3546   ZY=     0.0000
   XZ=     0.0000   YZ=     0.0000   ZZ=   172.9303
   Eigenvalues:   -60.2083    27.2914   172.9303
     14  H    Isotropic =    23.6591   Anisotropy =     5.6247
   XX=    26.3518   YX=     1.4562   ZX=     0.0000
   XY=     1.5561   YY=    25.2628   ZY=     0.0000
   XZ=     0.0000   YZ=     0.0000   ZZ=    19.3626
   Eigenvalues:    19.3626    24.2057    27.4089
     15  C    Isotropic =    24.2482   Anisotropy =   201.9959
   XX=   -79.9651   YX=     8.7871   ZX=     0.0000
   XY=     1.7310   YY=    -6.2024   ZY=     0.0000
   XZ=     0.0000   YZ=     0.0000   ZZ=   158.9121
   Eigenvalues:   -80.3382    -5.8293   158.9121
     16  H    Isotropic =    22.9757   Anisotropy =     7.4861
   XX=    22.3508   YX=    -0.5614   ZX=     0.0000
   XY=    -0.6242   YY=    27.9039   ZY=     0.0000
   XZ=     0.0000   YZ=     0.0000   ZZ=    18.6723
   Eigenvalues:    18.6723    22.2883    27.9664
     17  C    Isotropic =    24.3390   Anisotropy =   202.6623
   XX=   -76.2139   YX=   -21.0556   ZX=     0.0000
   XY=   -14.2318   YY=   -10.2163   ZY=     0.0000
   XZ=     0.0000   YZ=     0.0000   ZZ=   159.4472
   Eigenvalues:   -80.6346    -5.7956   159.4472
     18  H    Isotropic =    23.0169   Anisotropy =     7.3930
   XX=    22.3044   YX=    -0.4293   ZX=     0.0000
   XY=    -0.3805   YY=    27.9166   ZY=     0.0000
   XZ=     0.0000   YZ=     0.0000   ZZ=    18.8299
   Eigenvalues:    18.8299    22.2753    27.9456
     19  H    Isotropic =    23.6480   Anisotropy =     5.6654
   XX=    24.2213   YX=    -0.2710   ZX=     0.0000
   XY=    -0.2827   YY=    27.4011   ZY=     0.0000
   XZ=     0.0000   YZ=     0.0000   ZZ=    19.3218
   Eigenvalues:    19.3218    24.1973    27.4250
     20  H    Isotropic =    22.9698   Anisotropy =     7.4120
   XX=    26.0975   YX=     2.6392   ZX=     0.0000
   XY=     2.6766   YY=    24.0159   ZY=     0.0000
   XZ=     0.0000   YZ=     0.0000   ZZ=    18.7960
   Eigenvalues:    18.7960    22.2023    27.9111
     21  H    Isotropic =    22.9865   Anisotropy =     7.3193
   XX=    25.9364   YX=     2.6908   ZX=     0.0000
   XY=     2.6888   YY=    24.1164   ZY=     0.0000
   XZ=     0.0000   YZ=     0.0000   ZZ=    18.9066
   Eigenvalues:    18.9066    22.1868    27.8660
     22  H    Isotropic =    23.6388   Anisotropy =     5.6530
   XX=    26.8327   YX=    -1.1982   ZX=     0.0000
   XY=    -1.2557   YY=    24.7883   ZY=     0.0000
   XZ=     0.0000   YZ=     0.0000   ZZ=    19.2954
   Eigenvalues:    19.2954    24.2135    27.4075
     23  Bq   Isotropic =     6.4103   Anisotropy =    22.7001
   XX=    -0.3936   YX=    -0.0054   ZX=     0.2742
   XY=    -0.0716   YY=    -0.6520   ZY=     0.5921
   XZ=     4.2132   YZ=     9.0145   ZZ=    20.2764
   Eigenvalues:    -1.9060    -0.4069    21.5437
     24  Bq   Isotropic =     6.6236   Anisotropy =    23.0925
   XX=    -0.5048   YX=     0.0696   ZX=     0.2283
   XY=     0.0141   YY=    -0.6286   ZY=     0.4873
   XZ=     3.8274   YZ=     8.1852   ZZ=    21.0043
   Eigenvalues:    -1.5937    -0.5541    22.0186
     25  Bq   Isotropic =     6.7854   Anisotropy =    23.3887
   XX=    -0.6144   YX=     0.1451   ZX=     0.1948
   XY=     0.0990   YY=    -0.6009   ZY=     0.4121
   XZ=     3.4477   YZ=     7.3693   ZZ=    21.5715
   Eigenvalues:    -1.3242    -0.6973    22.3779
     26  Bq   Isotropic =     6.9031   Anisotropy =    23.6005
   XX=    -0.7163   YX=     0.2158   ZX=     0.1729
   XY=     0.1772   YY=    -0.5728   ZY=     0.3652
   XZ=     3.0838   YZ=     6.5879   ZZ=    21.9982
   Eigenvalues:    -1.1045    -0.8230    22.6367
     27  Bq   Isotropic =     6.9859   Anisotropy =    23.7438
   XX=    -0.8053   YX=     0.2768   ZX=     0.1607
   XY=     0.2437   YY=    -0.5476   ZY=     0.3423
   XZ=     2.7424   YZ=     5.8552   ZZ=    22.3105
   Eigenvalues:    -1.0021    -0.8553    22.8151
     28  Bq   Isotropic =     7.0442   Anisotropy =    23.8367
   XX=    -0.8767   YX=     0.3244   ZX=     0.1558
   XY=     0.2947   YY=    -0.5278   ZY=     0.3379
   XZ=     2.4267   YZ=     5.1779   ZZ=    22.5372
   Eigenvalues:    -1.0646    -0.7380    22.9354
     29  Bq   Isotropic =     7.0880   Anisotropy =    23.8977
   XX=    -0.9273   YX=     0.3557   ZX=     0.1553
   XY=     0.3275   YY=    -0.5151   ZY=     0.3451
   XZ=     2.1362   YZ=     4.5554   ZZ=    22.7064
   Eigenvalues:    -1.1230    -0.6327    23.0198
     30  Bq   Isotropic =     7.1257   Anisotropy =    23.9434
   XX=    -0.9551   YX=     0.3691   ZX=     0.1560
   XY=     0.3408   YY=    -0.5109   ZY=     0.3570
   XZ=     1.8679   YZ=     3.9809   ZZ=    22.8433
   Eigenvalues:    -1.1533    -0.5575    23.0880
     31  Bq   Isotropic =     7.1637   Anisotropy =    23.9874
   XX=    -0.9600   YX=     0.3639   ZX=     0.1548
   XY=     0.3344   YY=    -0.5163   ZY=     0.3663
   XZ=     1.6161   YZ=     3.4427   ZZ=    22.9675
   Eigenvalues:    -1.1529    -0.5113    23.1553
     32  Bq   Isotropic =     7.2054   Anisotropy =    24.0385
   XX=    -0.9433   YX=     0.3401   ZX=     0.1488
   XY=     0.3092   YY=    -0.5322   ZY=     0.3659
   XZ=     1.3736   YZ=     2.9253   ZZ=    23.0917
   Eigenvalues:    -1.1229    -0.4920    23.2311
     33  Bq   Isotropic =     7.2514   Anisotropy =    24.1001
   XX=    -0.9077   YX=     0.2992   ZX=     0.1350
   XY=     0.2672   YY=    -0.5589   ZY=     0.3493
   XZ=     1.1327   YZ=     2.4117   ZZ=    23.2209
   Eigenvalues:    -1.0666    -0.4973    23.3181
     34  Bq   Isotropic =     7.2994   Anisotropy =    24.1694
   XX=    -0.8570   YX=     0.2435   ZX=     0.1110
   XY=     0.2111   YY=    -0.5963   ZY=     0.3101
   XZ=     0.8854   YZ=     1.8852   ZZ=    23.3515
   Eigenvalues:    -0.9893    -0.5248    23.4124
     35  Bq   Isotropic =     7.3447   Anisotropy =    24.2383
   XX=    -0.7956   YX=     0.1761   ZX=     0.0745
   XY=     0.1450   YY=    -0.6429   ZY=     0.2433
   XZ=     0.6250   YZ=     1.3316   ZZ=    23.4727
   Eigenvalues:    -0.8978    -0.5716    23.5036
     36  Bq   Isotropic =     7.3809   Anisotropy =    24.2939
   XX=    -0.7285   YX=     0.1015   ZX=     0.0245
   XY=     0.0737   YY=    -0.6960   ZY=     0.1457
   XZ=     0.3469   YZ=     0.7411   ZZ=    23.5673
   Eigenvalues:    -0.8022    -0.6318    23.5769
     37  Bq   Isotropic =     7.4024   Anisotropy =    24.3210
   XX=    -0.6470   YX=     0.0097   ZX=    -0.0534
   XY=    -0.0112   YY=    -0.7623   ZY=    -0.0132
   XZ=    -0.0121   YZ=    -0.0211   ZZ=    23.6163
   Eigenvalues:    -0.7623    -0.6470    23.6164
     38  Bq   Isotropic =     7.3940   Anisotropy =    24.2917
   XX=    -0.5833   YX=    -0.0623   ZX=    -0.1314
   XY=    -0.0746   YY=    -0.8132   ZY=    -0.1768
   XZ=    -0.3302   YZ=    -0.6959   ZZ=    23.5785
   Eigenvalues:    -0.8415    -0.5649    23.5885
     39  Bq   Isotropic =     7.3564   Anisotropy =    24.2000
   XX=    -0.5272   YX=    -0.1244   ZX=    -0.2176
   XY=    -0.1256   YY=    -0.8538   ZY=    -0.3618
   XZ=    -0.6599   YZ=    -1.3951   ZZ=    23.4501
   Eigenvalues:    -0.9350    -0.4856    23.4897
     40  Bq   Isotropic =     7.2867   Anisotropy =    24.0356
   XX=    -0.4814   YX=    -0.1721   ZX=    -0.3073
   XY=    -0.1601   YY=    -0.8786   ZY=    -0.5577
   XZ=    -0.9929   YZ=    -2.1014   ZZ=    23.2201
   Eigenvalues:    -1.0284    -0.4220    23.3104
     41  Bq   Isotropic =     7.1850   Anisotropy =    23.7936
   XX=    -0.4472   YX=    -0.2025   ZX=    -0.3946
   XY=    -0.1752   YY=    -0.8835   ZY=    -0.7515
   XZ=    -1.3198   YZ=    -2.7948   ZZ=    22.8858
   Eigenvalues:    -1.1144    -0.3779    23.0474
     42  Bq   Isotropic =     7.0540   Anisotropy =    23.4749
   XX=    -0.4253   YX=    -0.2143   ZX=    -0.4732
   XY=    -0.1704   YY=    -0.8666   ZY=    -0.9292
   XZ=    -1.6304   YZ=    -3.4540   ZZ=    22.4540
   Eigenvalues:    -1.1872    -0.3547    22.7040
     43  Bq   Isotropic =     6.8989   Anisotropy =    23.0862
   XX=    -0.4152   YX=    -0.2080   ZX=    -0.5371
   XY=    -0.1468   YY=    -0.8281   ZY=    -1.0771
   XZ=    -1.9160   YZ=    -4.0606   ZZ=    21.9401
   Eigenvalues:    -1.2417    -0.3513    22.2897
     44  Bq   Isotropic =     6.7264   Anisotropy =    22.6392
   XX=    -0.4158   YX=    -0.1859   ZX=    -0.5814
   XY=    -0.1074   YY=    -0.7711   ZY=    -1.1837
   XZ=    -2.1696   YZ=    -4.6001   ZZ=    21.3662
   Eigenvalues:    -1.2745    -0.3654    21.8192
     45  Bq   Isotropic =     6.5444   Anisotropy =    22.1495
   XX=    -0.4254   YX=    -0.1515   ZX=    -0.6028
   XY=    -0.0566   YY=    -0.6998   ZY=    -1.2406
   XZ=    -2.3873   YZ=    -5.0642   ZZ=    20.7585
   Eigenvalues:    -1.2841    -0.3934    21.3108
     46  Bq   Isotropic =     6.3608   Anisotropy =    21.6359
   XX=    -0.4416   YX=    -0.1092   ZX=    -0.5998
   XY=     0.0006   YY=    -0.6202   ZY=    -1.2440
   XZ=    -2.5679   YZ=    -5.4507   ZZ=    20.1444
   Eigenvalues:    -1.2713    -0.4309    20.7848
     47  Bq   Isotropic =     6.1831   Anisotropy =    21.1181
   XX=    -0.4623   YX=    -0.0634   ZX=    -0.5730
   XY=     0.0590   YY=    -0.5382   ZY=    -1.1944
   XZ=    -2.7134   YZ=    -5.7635   ZZ=    19.5497
   Eigenvalues:    -1.2392    -0.4735    20.2618
     48  Bq   Isotropic =     6.0173   Anisotropy =    20.6160
   XX=    -0.4849   YX=    -0.0185   ZX=    -0.5245
   XY=     0.1139   YY=    -0.4595   ZY=    -1.0964
   XZ=    -2.8281   YZ=    -6.0119   ZZ=    18.9965
   Eigenvalues:    -1.1929    -0.5165    19.7614
     49  Bq   Isotropic =     5.8685   Anisotropy =    20.1486
   XX=    -0.5073   YX=     0.0218   ZX=    -0.4584
   XY=     0.1609   YY=    -0.3892   ZY=    -0.9584
   XZ=    -2.9183   YZ=    -6.2089   ZZ=    18.5020
   Eigenvalues:    -1.1394    -0.5560    19.3009
     50  Bq   Isotropic =     5.7396   Anisotropy =    19.7321
   XX=    -0.5273   YX=     0.0546   ZX=    -0.3794
   XY=     0.1971   YY=    -0.3310   ZY=    -0.7915
   XZ=    -2.9913   YZ=    -6.3701   ZZ=    18.0770
   Eigenvalues:    -1.0870    -0.5886    18.8943
     51  Bq   Isotropic =     5.6173   Anisotropy =    19.3322
   XX=    -0.5454   YX=     0.0802   ZX=    -0.2805
   XY=     0.2223   YY=    -0.2825   ZY=    -0.5811
   XZ=    -3.0648   YZ=    -6.5335   ZZ=    17.6800
   Eigenvalues:    -1.0392    -0.6142    18.5055
     52  Bq   Isotropic =     5.5328   Anisotropy =    19.0623
   XX=    -0.5558   YX=     0.0907   ZX=    -0.1947
   XY=     0.2288   YY=    -0.2581   ZY=    -0.3987
   XZ=    -3.1286   YZ=    -6.6757   ZZ=    17.4123
   Eigenvalues:    -1.0181    -0.6245    18.2410
     53  Bq   Isotropic =     5.4655   Anisotropy =    18.8665
   XX=    -0.5607   YX=     0.0901   ZX=    -0.1158
   XY=     0.2212   YY=    -0.2502   ZY=    -0.2320
   XZ=    -3.2007   YZ=    -6.8350   ZZ=    17.2074
   Eigenvalues:    -1.0232    -0.6234    18.0431
     54  Bq   Isotropic =     5.4108   Anisotropy =    18.7399
   XX=    -0.5603   YX=     0.0796   ZX=    -0.0504
   XY=     0.2008   YY=    -0.2574   ZY=    -0.0953
   XZ=    -3.2878   YZ=    -7.0260   ZZ=    17.0501
   Eigenvalues:    -1.0598    -0.6120    17.9040
     55  Bq   Isotropic =     5.3624   Anisotropy =    18.6717
   XX=    -0.5555   YX=     0.0610   ZX=    -0.0038
   XY=     0.1701   YY=    -0.2771   ZY=    -0.0008
   XZ=    -3.3953   YZ=    -7.2601   ZZ=    16.9199
   Eigenvalues:    -1.1306    -0.5923    17.8102
     56  Bq   Isotropic =     5.3129   Anisotropy =    18.6452
   XX=    -0.5478   YX=     0.0377   ZX=     0.0192
   XY=     0.1329   YY=    -0.3052   ZY=     0.0415
   XZ=    -3.5270   YZ=    -7.5446   ZZ=    16.7917
   Eigenvalues:    -1.2367    -0.5677    17.7431
     57  Bq   Isotropic =     5.2539   Anisotropy =    18.6398
   XX=    -0.5390   YX=     0.0136   ZX=     0.0157
   XY=     0.0938   YY=    -0.3364   ZY=     0.0257
   XZ=    -3.6839   YZ=    -7.8821   ZZ=    16.6370
   Eigenvalues:    -1.3770    -0.5418    17.6804
     58  Bq   Isotropic =     5.1766   Anisotropy =    18.6320
   XX=    -0.5313   YX=    -0.0067   ZX=    -0.0152
   XY=     0.0578   YY=    -0.3648   ZY=    -0.0500
   XZ=    -3.8643   YZ=    -8.2689   ZZ=    16.4260
   Eigenvalues:    -1.5490    -0.5191    17.5980
     59  Bq   Isotropic =     5.0730   Anisotropy =    18.5980
   XX=    -0.5269   YX=    -0.0184   ZX=    -0.0724
   XY=     0.0304   YY=    -0.3846   ZY=    -0.1821
   XZ=    -4.0636   YZ=    -8.6951   ZZ=    16.1303
   Eigenvalues:    -1.7486    -0.5042    17.4716
     60  Bq   Isotropic =     4.9357   Anisotropy =    18.5154
   XX=    -0.5280   YX=    -0.0176   ZX=    -0.1524
   XY=     0.0161   YY=    -0.3905   ZY=    -0.3627
   XZ=    -4.2740   YZ=    -9.1442   ZZ=    15.7255
   Eigenvalues:    -1.9711    -0.5012    17.2793
     61  Bq   Isotropic =     4.7596   Anisotropy =    18.3655
   XX=    -0.5365   YX=    -0.0010   ZX=    -0.2498
   XY=     0.0184   YY=    -0.3790   ZY=    -0.5795
   XZ=    -4.4853   YZ=    -9.5948   ZZ=    15.1942
   Eigenvalues:    -2.2111    -0.5135    17.0033
     62  Bq   Isotropic =     4.5420   Anisotropy =    18.1347
   XX=    -0.5536   YX=     0.0325   ZX=    -0.3578
   XY=     0.0389   YY=    -0.3489   ZY=    -0.8176
   XZ=    -4.6858   YZ=   -10.0222   ZZ=    14.5285
   Eigenvalues:    -2.4628    -0.5431    16.6318
     63  Bq   Isotropic =     4.2834   Anisotropy =    17.8155
   XX=    -0.5799   YX=     0.0825   ZX=    -0.4695
   XY=     0.0773   YY=    -0.3015   ZY=    -1.0614
   XZ=    -4.8635   YZ=   -10.4007   ZZ=    13.7315
   Eigenvalues:    -2.7200    -0.5902    16.1604
     64  Bq   Isotropic =     3.9871   Anisotropy =    17.4069
   XX=    -0.6152   YX=     0.1466   ZX=    -0.5780
   XY=     0.1314   YY=    -0.2403   ZY=    -1.2963
   XZ=    -5.0076   YZ=   -10.7074   ZZ=    12.8168
   Eigenvalues:    -2.9766    -0.6538    15.5917
 End of Minotr F.D. properties file   721 does not exist.
 End of Minotr F.D. properties file   722 does not exist.
 End of Minotr F.D. properties file   788 does not exist.

 **********************************************************************

            Population analysis using the SCF density.

 **********************************************************************

 Alpha  occ. eigenvalues --  -10.36753 -10.36752 -10.36752 -10.36752 -10.36750
 Alpha  occ. eigenvalues --  -10.36750 -10.35970 -10.35969 -10.35968 -10.35410
 Alpha  occ. eigenvalues --  -10.34616 -10.34616 -10.34615  -1.06826  -1.00830
 Alpha  occ. eigenvalues --   -1.00828  -0.93015  -0.93014  -0.91909  -0.84674
 Alpha  occ. eigenvalues --   -0.80108  -0.78852  -0.78852  -0.69305  -0.69303
 Alpha  occ. eigenvalues --   -0.68306  -0.68304  -0.64723  -0.60715  -0.60713
 Alpha  occ. eigenvalues --   -0.60542  -0.58167  -0.57786  -0.56199  -0.56195
 Alpha  occ. eigenvalues --   -0.55172  -0.51243  -0.51241  -0.50615  -0.50614
 Alpha  occ. eigenvalues --   -0.42725  -0.42725  -0.42371
 Alpha virt. eigenvalues --   -0.29162  -0.18780  -0.18112  -0.18112  -0.11920
 Alpha virt. eigenvalues --   -0.10204  -0.10202  -0.09206  -0.08280  -0.08280
 Alpha virt. eigenvalues --   -0.08231  -0.08229  -0.07284  -0.05917  -0.05695
 Alpha virt. eigenvalues --   -0.04208  -0.04198  -0.04049  -0.04040  -0.02946
 Alpha virt. eigenvalues --   -0.02945  -0.00716   0.00088   0.00089   0.01310
 Alpha virt. eigenvalues --    0.01311   0.01745   0.01769   0.02253   0.02258
 Alpha virt. eigenvalues --    0.03469   0.03815   0.04331   0.05198   0.05198
 Alpha virt. eigenvalues --    0.06419   0.06444   0.06592   0.06607   0.06608
 Alpha virt. eigenvalues --    0.07049   0.07520   0.08551   0.08555   0.09388
 Alpha virt. eigenvalues --    0.09417   0.10043   0.10055   0.11611   0.11613
 Alpha virt. eigenvalues --    0.11651   0.12261   0.12303   0.13069   0.13876
 Alpha virt. eigenvalues --    0.13881   0.14678   0.15143   0.15144   0.16203
 Alpha virt. eigenvalues --    0.16216   0.17629   0.17933   0.17948   0.18481
 Alpha virt. eigenvalues --    0.19141   0.19157   0.21744   0.22200   0.22208
 Alpha virt. eigenvalues --    0.25771   0.29612   0.30106   0.31849   0.31871
 Alpha virt. eigenvalues --    0.31873   0.34203   0.34205   0.37419   0.37520
 Alpha virt. eigenvalues --    0.39732   0.39735   0.40262   0.40265   0.42202
 Alpha virt. eigenvalues --    0.42210   0.42377   0.43068   0.43088   0.43217
 Alpha virt. eigenvalues --    0.43493   0.43500   0.45388   0.48286   0.48688
 Alpha virt. eigenvalues --    0.49259   0.49277   0.49328   0.49474   0.49476
 Alpha virt. eigenvalues --    0.54889   0.55612   0.55615   0.55882   0.56603
 Alpha virt. eigenvalues --    0.56604   0.58289   0.58290   0.60177   0.60179
 Alpha virt. eigenvalues --    0.62714   0.62789   0.67874   0.67875   0.68325
 Alpha virt. eigenvalues --    0.68819   0.69494   0.69495   0.72696   0.73325
 Alpha virt. eigenvalues --    0.73326   0.77406   0.77416   0.77654   0.78220
 Alpha virt. eigenvalues --    0.78227   0.79164   0.79165   0.80541   0.82799
 Alpha virt. eigenvalues --    0.82805   0.86789   0.87199   0.92704   0.92705
 Alpha virt. eigenvalues --    0.94202   0.94210   0.95843   0.97445   1.01598
 Alpha virt. eigenvalues --    1.01604   1.01668   1.02690   1.03390   1.03394
 Alpha virt. eigenvalues --    1.06156   1.06160   1.20069   1.22530   1.24588
 Alpha virt. eigenvalues --    1.24592   1.32041   1.32043   1.32967   1.33634
 Alpha virt. eigenvalues --    1.33636   1.33924   1.37201   1.40974   1.40979
 Alpha virt. eigenvalues --    1.42279   1.42289   1.52897   1.52908   1.55776
 Alpha virt. eigenvalues --    1.57974   1.61857   1.67528   1.67532   1.67568
 Alpha virt. eigenvalues --    1.67569   1.69586   1.70553   1.70558   1.71359
 Alpha virt. eigenvalues --    1.73961   1.73968   1.74875   1.81432   1.82073
 Alpha virt. eigenvalues --    1.82090   1.85459   1.85464   1.86601   1.88517
 Alpha virt. eigenvalues --    1.88523   1.96355   1.98421   1.98422   2.01354
 Alpha virt. eigenvalues --    2.09089   2.15625   2.15631   2.20620   2.20626
 Alpha virt. eigenvalues --    2.23407   2.23409   2.24966   2.25226   2.26965
 Alpha virt. eigenvalues --    2.26978   2.31251   2.31260   2.33487   2.45529
 Alpha virt. eigenvalues --    2.50211   2.50212   2.51840   2.55762   2.60105
 Alpha virt. eigenvalues --    2.60116   2.60287   2.60288   2.65677   2.67456
 Alpha virt. eigenvalues --    2.67469   2.68818   2.72737   2.74312   2.74313
 Alpha virt. eigenvalues --    2.88187   2.88189   2.93220   3.01836   3.01845
 Alpha virt. eigenvalues --    3.08667   3.09141   3.11081   3.11085   3.12568
 Alpha virt. eigenvalues --    3.15281   3.17102   3.17103   3.20208   3.20214
 Alpha virt. eigenvalues --    3.26814   3.26814   3.31326   3.38946   3.38949
 Alpha virt. eigenvalues --    3.43017   3.47970   3.47980   3.65739   3.72359
 Alpha virt. eigenvalues --    3.81147   3.81150   4.10901   4.10908   4.56065
 Alpha virt. eigenvalues --    4.63465   4.63473  23.06481  23.45443  23.45462
 Alpha virt. eigenvalues --   23.73553  23.73562  23.77068  23.79626  23.84417
 Alpha virt. eigenvalues --   23.84421  23.86048  23.94493  23.94503  23.94854
     Molecular Orbital Coefficients:
                           1         2         3         4         5
                           O         O         O         O         O
     Eigenvalues --   -10.36753 -10.36752 -10.36752 -10.36752 -10.36750
   1 1   C  1S          0.50526   0.23134  -0.07081   0.01301   0.04841
   2        2S          0.41590   0.19051  -0.05821   0.01073   0.03991
   3        2PX        -0.00004  -0.00014   0.00007   0.00005   0.00004
   4        2PY         0.00037   0.00001  -0.00001   0.00001   0.00004
   5        2PZ         0.00000   0.00000   0.00000   0.00000   0.00000
   6        3S          0.01732   0.00774  -0.00289   0.00039   0.00126
   7        3PX         0.00078   0.00109  -0.00061  -0.00031  -0.00024
   8        3PY        -0.00268   0.00001   0.00014  -0.00013  -0.00024
   9        3PZ         0.00000   0.00000   0.00000   0.00000   0.00000
  10        4S         -0.01917  -0.02122   0.00628  -0.00202   0.00520
  11        4PX        -0.00393  -0.00649   0.00121  -0.00014   0.00286
  12        4PY         0.00510   0.00751  -0.00046   0.00094  -0.00092
  13        4PZ         0.00000   0.00000   0.00000   0.00000   0.00000
  14        5S         -0.07163   0.04380   0.16149  -0.04468   0.02190
  15        5PX        -0.02137   0.00936   0.04066  -0.00725  -0.00033
  16        5PY        -0.00327   0.00017   0.00793   0.00718  -0.00357
  17        5PZ         0.00000   0.00000   0.00000   0.00000   0.00000
  18        6D 0       -0.00116  -0.00041   0.00017  -0.00002  -0.00011
  19        6D+1        0.00000   0.00000   0.00000   0.00000   0.00000
  20        6D-1        0.00000   0.00000   0.00000   0.00000   0.00000
  21        6D+2       -0.00005   0.00063  -0.00035  -0.00018  -0.00016
  22        6D-2        0.00124   0.00014  -0.00030   0.00002   0.00005
  23 2   C  1S          0.00373   0.00928   0.00056  -0.00114   0.00134
  24        2S          0.00320   0.00796   0.00051  -0.00093   0.00116
  25        2PX         0.00006   0.00039   0.00006  -0.00002   0.00007
  26        2PY         0.00100  -0.00034  -0.00017   0.00010   0.00000
  27        2PZ         0.00000   0.00000   0.00000   0.00000   0.00000
  28        3S         -0.00026  -0.00064  -0.00025  -0.00028  -0.00002
  29        3PX        -0.00012  -0.00139  -0.00026  -0.00004  -0.00037
  30        3PY        -0.00450   0.00160   0.00059  -0.00034   0.00000
  31        3PZ         0.00000   0.00000   0.00000   0.00000   0.00000
  32        4S          0.00571   0.01432   0.00205   0.00030  -0.00229
  33        4PX         0.00368   0.00969   0.00166   0.00044  -0.00163
  34        4PY         0.00218   0.00026  -0.00105   0.00073  -0.00019
  35        4PZ         0.00000   0.00000   0.00000   0.00000   0.00000
  36        5S         -0.01150  -0.02712   0.01535   0.03256  -0.04807
  37        5PX        -0.00126  -0.00544   0.00030   0.00386  -0.01016
  38        5PY        -0.01129   0.00263   0.01062  -0.00585  -0.00323
  39        5PZ         0.00000   0.00000   0.00000   0.00000   0.00000
  40        6D 0        0.00037   0.00092   0.00006  -0.00011   0.00017
  41        6D+1        0.00000   0.00000   0.00000   0.00000   0.00000
  42        6D-1        0.00000   0.00000   0.00000   0.00000   0.00000
  43        6D+2        0.00075   0.00074   0.00000  -0.00007   0.00021
  44        6D-2       -0.00216   0.00100   0.00034  -0.00020   0.00005
  45 3   C  1S         -0.21317   0.49426   0.11903  -0.09505   0.05711
  46        2S         -0.17540   0.40691   0.09797  -0.07817   0.04707
  47        2PX        -0.00011  -0.00007  -0.00001   0.00010   0.00004
  48        2PY         0.00024  -0.00027  -0.00005   0.00003  -0.00004
  49        2PZ         0.00000   0.00000   0.00000   0.00000   0.00000
  50        3S         -0.00748   0.01675   0.00422  -0.00367   0.00153
  51        3PX         0.00048   0.00091   0.00018  -0.00078  -0.00022
  52        3PY        -0.00191   0.00197   0.00041  -0.00029   0.00025
  53        3PZ         0.00000   0.00000   0.00000   0.00000   0.00000
  54        4S          0.00008  -0.02686  -0.00948   0.00719   0.00480
  55        4PX        -0.00116  -0.00548  -0.00152   0.00157   0.00251
  56        4PY        -0.00157  -0.00970  -0.00293   0.00116   0.00084
  57        4PZ         0.00000   0.00000   0.00000   0.00000   0.00000
  58        5S          0.09624   0.01219  -0.11169   0.11529   0.07774
  59        5PX         0.02531  -0.00096  -0.02443   0.03263   0.01312
  60        5PY         0.00165   0.00137  -0.00663  -0.00489   0.00368
  61        5PZ         0.00000   0.00000   0.00000   0.00000   0.00000
  62        6D 0        0.00057  -0.00105  -0.00025   0.00022  -0.00015
  63        6D+1        0.00000   0.00000   0.00000   0.00000   0.00000
  64        6D-1        0.00000   0.00000   0.00000   0.00000   0.00000
  65        6D+2        0.00014   0.00066   0.00019  -0.00053  -0.00009
  66        6D-2        0.00092  -0.00071  -0.00022   0.00013  -0.00013
  67 4   H  1S         -0.00017   0.00038   0.00010  -0.00013  -0.00002
  68        2S         -0.00001  -0.00182  -0.00045   0.00005  -0.00003
  69        3S         -0.00193   0.00018   0.00059  -0.00041   0.00066
  70 5   C  1S         -0.00929   0.01707  -0.00041   0.01280   0.00444
  71        2S         -0.00765   0.01423  -0.00033   0.01065   0.00379
  72        2PX         0.00017  -0.00073  -0.00028   0.00057   0.00010
  73        2PY         0.00020  -0.00016   0.00022  -0.00062  -0.00007
  74        2PZ         0.00000   0.00000   0.00000   0.00000   0.00000
  75        3S         -0.00075   0.00014  -0.00010   0.00029  -0.00057
  76        3PX        -0.00043   0.00315   0.00112  -0.00225  -0.00067
  77        3PY        -0.00104   0.00058  -0.00104   0.00247   0.00011
  78        3PZ         0.00000   0.00000   0.00000   0.00000   0.00000
  79        4S         -0.00205   0.01224  -0.00407   0.00652   0.00112
  80        4PX        -0.00538  -0.00962  -0.00724   0.00778   0.00727
  81        4PY         0.00313   0.00710   0.00434  -0.00198   0.00013
  82        4PZ         0.00000   0.00000   0.00000   0.00000   0.00000
  83        5S         -0.01556  -0.00229   0.00804   0.00591  -0.00134
  84        5PX         0.08004  -0.01416  -0.09707   0.10892   0.03385
  85        5PY        -0.04381   0.04026   0.06498  -0.02264   0.02985
  86        5PZ         0.00000   0.00000   0.00000   0.00000   0.00000
  87        6D 0       -0.00033   0.00057  -0.00002   0.00043   0.00012
  88        6D+1        0.00000   0.00000   0.00000   0.00000   0.00000
  89        6D-1        0.00000   0.00000   0.00000   0.00000   0.00000
  90        6D+2        0.00046  -0.00147  -0.00038   0.00084   0.00005
  91        6D-2       -0.00022  -0.00007  -0.00047   0.00152   0.00019
  92 6   C  1S          0.00002   0.00006   0.00003   0.00003   0.00010
  93        2S          0.00005   0.00012   0.00006   0.00007   0.00020
  94        2PX        -0.00007  -0.00015  -0.00007  -0.00006   0.00013
  95        2PY         0.00015  -0.00009   0.00011  -0.00008   0.00003
  96        2PZ         0.00000   0.00000   0.00000   0.00000   0.00000
  97        3S         -0.00009  -0.00022  -0.00011  -0.00014  -0.00037
  98        3PX         0.00047   0.00095   0.00042   0.00035  -0.00086
  99        3PY        -0.00096   0.00059  -0.00074   0.00050  -0.00018
 100        3PZ         0.00000   0.00000   0.00000   0.00000   0.00000
 101        4S         -0.00295  -0.00682  -0.00349  -0.00422  -0.01151
 102        4PX         0.00344   0.00754   0.00152  -0.00023  -0.00514
 103        4PY        -0.00443   0.00332  -0.00561   0.00343  -0.00181
 104        4PZ         0.00000   0.00000   0.00000   0.00000   0.00000
 105        5S         -0.05652  -0.13071  -0.06701  -0.08095  -0.22068
 106        5PX        -0.00017   0.00161  -0.00502  -0.00882   0.00361
 107        5PY         0.00827  -0.00315  -0.00054  -0.00073  -0.00159
 108        5PZ         0.00000   0.00000   0.00000   0.00000   0.00000
 109        6D 0        0.00003   0.00006   0.00003   0.00004   0.00011
 110        6D+1        0.00000   0.00000   0.00000   0.00000   0.00000
 111        6D-1        0.00000   0.00000   0.00000   0.00000   0.00000
 112        6D+2        0.00002   0.00042   0.00026   0.00049  -0.00047
 113        6D-2        0.00071  -0.00025   0.00037  -0.00011  -0.00010
 114 7   C  1S          0.01808   0.00426   0.01350   0.00441   0.00412
 115        2S          0.01501   0.00362   0.01123   0.00368   0.00354
 116        2PX        -0.00068  -0.00048   0.00040   0.00008   0.00012
 117        2PY         0.00010  -0.00021   0.00073   0.00012   0.00013
 118        2PZ         0.00000   0.00000   0.00000   0.00000   0.00000
 119        3S          0.00061  -0.00045   0.00026   0.00007  -0.00072
 120        3PX         0.00273   0.00219  -0.00150  -0.00037  -0.00080
 121        3PY        -0.00054   0.00112  -0.00295  -0.00034  -0.00052
 122        3PZ         0.00000   0.00000   0.00000   0.00000   0.00000
 123        4S          0.00942   0.00584   0.00943  -0.00158   0.00425
 124        4PX        -0.00265  -0.01096   0.00770  -0.00105   0.00874
 125        4PY        -0.00345  -0.01011   0.00373  -0.00220   0.00217
 126        4PZ         0.00000   0.00000   0.00000   0.00000   0.00000
 127        5S          0.00986  -0.01136   0.00007   0.01059  -0.01043
 128        5PX        -0.06535   0.01939   0.13320  -0.02398  -0.01022
 129        5PY        -0.07818  -0.00765   0.07013  -0.04705  -0.04911
 130        5PZ         0.00000   0.00000   0.00000   0.00000   0.00000
 131        6D 0        0.00062   0.00013   0.00046   0.00014   0.00011
 132        6D+1        0.00000   0.00000   0.00000   0.00000   0.00000
 133        6D-1        0.00000   0.00000   0.00000   0.00000   0.00000
 134        6D+2       -0.00130  -0.00097   0.00117   0.00032   0.00020
 135        6D-2       -0.00050   0.00011  -0.00118  -0.00025  -0.00024
 136 8   C  1S          0.09190  -0.07362   0.52189   0.13335   0.11107
 137        2S          0.07571  -0.06056   0.42959   0.10978   0.09154
 138        2PX        -0.00012  -0.00004  -0.00028  -0.00011   0.00007
 139        2PY        -0.00002  -0.00008   0.00019   0.00004   0.00006
 140        2PZ         0.00000   0.00000   0.00000   0.00000   0.00000
 141        3S          0.00280  -0.00287   0.01797   0.00439   0.00340
 142        3PX         0.00083   0.00028   0.00185   0.00072  -0.00060
 143        3PY         0.00008   0.00064  -0.00186  -0.00044  -0.00037
 144        3PZ         0.00000   0.00000   0.00000   0.00000   0.00000
 145        4S         -0.00161   0.01324  -0.02380   0.00017  -0.01179
 146        4PX        -0.00122   0.00187  -0.00407  -0.00071  -0.00378
 147        4PY         0.00106  -0.00575   0.00716  -0.00069   0.00506
 148        4PZ         0.00000   0.00000   0.00000   0.00000   0.00000
 149        5S          0.10700   0.02425  -0.12017   0.07886   0.08568
 150        5PX        -0.01793   0.00205   0.01765  -0.00374  -0.00903
 151        5PY        -0.02331  -0.00265   0.02956  -0.01457  -0.01720
 152        5PZ         0.00000   0.00000   0.00000   0.00000   0.00000
 153        6D 0       -0.00021   0.00014  -0.00116  -0.00035  -0.00015
 154        6D+1        0.00000   0.00000   0.00000   0.00000   0.00000
 155        6D-1        0.00000   0.00000   0.00000   0.00000   0.00000
 156        6D+2        0.00037   0.00021   0.00061   0.00029  -0.00040
 157        6D-2       -0.00012  -0.00038   0.00103   0.00027   0.00017
 158 9   C  1S          0.00081  -0.00163   0.00571   0.00063   0.00745
 159        2S          0.00073  -0.00139   0.00489   0.00053   0.00641
 160        2PX        -0.00022   0.00001  -0.00083  -0.00028   0.00034
 161        2PY         0.00004   0.00005   0.00015   0.00011  -0.00050
 162        2PZ         0.00000   0.00000   0.00000   0.00000   0.00000
 163        3S         -0.00036   0.00017  -0.00032   0.00011  -0.00059
 164        3PX         0.00111   0.00011   0.00358   0.00128  -0.00165
 165        3PY        -0.00023  -0.00013  -0.00087  -0.00048   0.00204
 166        3PZ         0.00000   0.00000   0.00000   0.00000   0.00000
 167        4S          0.00363  -0.00578   0.00832  -0.00185   0.01024
 168        4PX        -0.00098   0.00204  -0.00388   0.00008  -0.00221
 169        4PY        -0.00253   0.00343  -0.00432   0.00150  -0.00666
 170        4PZ         0.00000   0.00000   0.00000   0.00000   0.00000
 171        5S          0.02843  -0.02826  -0.02344  -0.03297  -0.03190
 172        5PX        -0.00569   0.00384   0.01432  -0.00120  -0.00143
 173        5PY        -0.00100   0.00521  -0.00232   0.00722   0.00893
 174        5PZ         0.00000   0.00000   0.00000   0.00000   0.00000
 175        6D 0        0.00008  -0.00013   0.00057   0.00008   0.00076
 176        6D+1        0.00000   0.00000   0.00000   0.00000   0.00000
 177        6D-1        0.00000   0.00000   0.00000   0.00000   0.00000
 178        6D+2       -0.00046   0.00002  -0.00175  -0.00060   0.00042
 179        6D-2       -0.00029  -0.00011  -0.00074  -0.00037   0.00134
 180 10  C  1S         -0.08104   0.08211  -0.13147   0.52122   0.10820
 181        2S         -0.06672   0.06765  -0.10820   0.42903   0.08915
 182        2PX         0.00004  -0.00015   0.00001  -0.00025   0.00002
 183        2PY         0.00004   0.00002   0.00007  -0.00024  -0.00002
 184        2PZ         0.00000   0.00000   0.00000   0.00000   0.00000
 185        3S         -0.00276   0.00237  -0.00478   0.01790   0.00340
 186        3PX        -0.00027   0.00102  -0.00003   0.00155  -0.00021
 187        3PY        -0.00031  -0.00007  -0.00061   0.00219   0.00017
 188        3PZ         0.00000   0.00000   0.00000   0.00000   0.00000
 189        4S          0.00821   0.00440   0.01314  -0.02179  -0.00901
 190        4PX         0.00107  -0.00044   0.00061  -0.00284  -0.00245
 191        4PY         0.00430   0.00207   0.00492  -0.00701  -0.00380
 192        4PZ         0.00000   0.00000   0.00000   0.00000   0.00000
 193        5S         -0.07050   0.06192   0.13677  -0.07136   0.02524
 194        5PX         0.01834  -0.00927  -0.01724   0.01701  -0.00648
 195        5PY        -0.01441   0.00991   0.02607  -0.01678   0.00292
 196        5PZ         0.00000   0.00000   0.00000   0.00000   0.00000
 197        6D 0        0.00017  -0.00019   0.00024  -0.00118  -0.00018
 198        6D+1        0.00000   0.00000   0.00000   0.00000   0.00000
 199        6D-1        0.00000   0.00000   0.00000   0.00000   0.00000
 200        6D+2       -0.00012   0.00037  -0.00008   0.00096  -0.00009
 201        6D-2        0.00006   0.00036   0.00031  -0.00079  -0.00017
 202 11  H  1S         -0.00009  -0.00001  -0.00013   0.00042   0.00004
 203        2S          0.00066  -0.00010   0.00050  -0.00136  -0.00074
 204        3S          0.00081   0.00070  -0.00010   0.00144  -0.00017
 205 12  C  1S         -0.00115  -0.00364  -0.00400  -0.00627   0.02140
 206        2S         -0.00093  -0.00298  -0.00327  -0.00512   0.01786
 207        2PX        -0.00008  -0.00020  -0.00012  -0.00015   0.00050
 208        2PY         0.00004  -0.00005   0.00007  -0.00006   0.00034
 209        2PZ         0.00000   0.00000   0.00000   0.00000   0.00000
 210        3S         -0.00018  -0.00044  -0.00054  -0.00081   0.00004
 211        3PX         0.00044   0.00108   0.00059   0.00065  -0.00194
 212        3PY        -0.00033   0.00034  -0.00065   0.00049  -0.00137
 213        3PZ         0.00000   0.00000   0.00000   0.00000   0.00000
 214        4S         -0.00251  -0.00684   0.00040   0.00201   0.01359
 215        4PX        -0.00138  -0.00129  -0.00153  -0.00061  -0.00407
 216        4PY         0.00743  -0.00422   0.00778  -0.00484   0.00371
 217        4PZ         0.00000   0.00000   0.00000   0.00000   0.00000
 218        5S          0.00247   0.00662  -0.01146  -0.02106  -0.00021
 219        5PX        -0.01586  -0.02654   0.00934  -0.00242  -0.05384
 220        5PY         0.04836  -0.00580  -0.12591   0.07399   0.03561
 221        5PZ         0.00000   0.00000   0.00000   0.00000   0.00000
 222        6D 0       -0.00005  -0.00015  -0.00015  -0.00023   0.00071
 223        6D+1        0.00000   0.00000   0.00000   0.00000   0.00000
 224        6D-1        0.00000   0.00000   0.00000   0.00000   0.00000
 225        6D+2       -0.00012  -0.00032  -0.00017  -0.00028   0.00114
 226        6D-2        0.00003  -0.00006  -0.00015   0.00003  -0.00040
 227 13  C  1S         -0.00114   0.00022  -0.00224   0.00538   0.00451
 228        2S         -0.00100   0.00023  -0.00192   0.00460   0.00391
 229        2PX         0.00012  -0.00024   0.00013  -0.00081   0.00008
 230        2PY         0.00002  -0.00012  -0.00001  -0.00032   0.00031
 231        2PZ         0.00000   0.00000   0.00000   0.00000   0.00000
 232        3S          0.00033  -0.00019   0.00024  -0.00023  -0.00051
 233        3PX        -0.00053   0.00122  -0.00047   0.00346  -0.00050
 234        3PY        -0.00017   0.00058  -0.00006   0.00159  -0.00138
 235        3PZ         0.00000   0.00000   0.00000   0.00000   0.00000
 236        4S         -0.00570  -0.00011  -0.00605   0.00677   0.00627
 237        4PX         0.00237   0.00012   0.00270  -0.00400  -0.00253
 238        4PY        -0.00332   0.00015  -0.00320   0.00263   0.00358
 239        4PZ         0.00000   0.00000   0.00000   0.00000   0.00000
 240        5S         -0.04129  -0.00080  -0.02061  -0.03442  -0.01493
 241        5PX         0.00841   0.00157  -0.00596   0.01158   0.00386
 242        5PY        -0.00268  -0.00157  -0.00938   0.00100  -0.00375
 243        5PZ         0.00000   0.00000   0.00000   0.00000   0.00000
 244        6D 0       -0.00009   0.00004  -0.00020   0.00054   0.00047
 245        6D+1        0.00000   0.00000   0.00000   0.00000   0.00000
 246        6D-1        0.00000   0.00000   0.00000   0.00000   0.00000
 247        6D+2        0.00028  -0.00063   0.00026  -0.00196   0.00039
 248        6D-2       -0.00003   0.00017   0.00009   0.00015  -0.00066
 249 14  H  1S          0.00009  -0.00003   0.00009  -0.00015  -0.00018
 250        2S         -0.00061  -0.00001  -0.00053   0.00028   0.00035
 251        3S         -0.00047   0.00032  -0.00082   0.00215   0.00212
 252 15  C  1S         -0.01212  -0.06008  -0.04409  -0.10250   0.24971
 253        2S         -0.00998  -0.04942  -0.03630  -0.08430   0.20566
 254        2PX         0.00001  -0.00007  -0.00003  -0.00009   0.00011
 255        2PY         0.00004  -0.00005   0.00004  -0.00018   0.00014
 256        2PZ         0.00000   0.00000   0.00000   0.00000   0.00000
 257        3S         -0.00059  -0.00219  -0.00150  -0.00374   0.00799
 258        3PX        -0.00008   0.00053   0.00021   0.00085  -0.00092
 259        3PY        -0.00026   0.00030  -0.00029   0.00121  -0.00079
 260        3PZ         0.00000   0.00000   0.00000   0.00000   0.00000
 261        4S          0.00887   0.00024   0.00773  -0.00261  -0.00693
 262        4PX        -0.00391   0.00042  -0.00454   0.00266   0.00334
 263        4PY         0.00094   0.00081   0.00058  -0.00009   0.00138
 264        4PZ         0.00000   0.00000   0.00000   0.00000   0.00000
 265        5S          0.07770   0.01566  -0.10951   0.09471   0.09498
 266        5PX        -0.01209   0.00032   0.01436  -0.01502  -0.00974
 267        5PY         0.00803   0.00704  -0.02661   0.01569   0.01831
 268        5PZ         0.00000   0.00000   0.00000   0.00000   0.00000
 269        6D 0       -0.00003   0.00015   0.00008   0.00032  -0.00054
 270        6D+1        0.00000   0.00000   0.00000   0.00000   0.00000
 271        6D-1        0.00000   0.00000   0.00000   0.00000   0.00000
 272        6D+2       -0.00007   0.00019   0.00005   0.00048  -0.00034
 273        6D-2        0.00013  -0.00012   0.00019  -0.00057   0.00030
 274 16  H  1S         -0.00003  -0.00006  -0.00008  -0.00010   0.00012
 275        2S          0.00036  -0.00007   0.00061  -0.00020  -0.00091
 276        3S          0.00049  -0.00019   0.00127  -0.00156   0.00044
 277 17  C  1S         -0.02263  -0.05312  -0.07626  -0.08614   0.47352
 278        2S         -0.01860  -0.04372  -0.06270  -0.07089   0.38986
 279        2PX        -0.00005  -0.00004  -0.00010  -0.00007   0.00027
 280        2PY         0.00004  -0.00002   0.00016   0.00004  -0.00011
 281        2PZ         0.00000   0.00000   0.00000   0.00000   0.00000
 282        3S         -0.00075  -0.00200  -0.00286  -0.00304   0.01584
 283        3PX         0.00042   0.00027   0.00091   0.00061  -0.00213
 284        3PY        -0.00024   0.00017  -0.00107  -0.00021   0.00037
 285        3PZ         0.00000   0.00000   0.00000   0.00000   0.00000
 286        4S         -0.00598   0.00800  -0.00526   0.00533  -0.01973
 287        4PX         0.00281  -0.00321   0.00416  -0.00254   0.00794
 288        4PY         0.00055  -0.00189   0.00087  -0.00079   0.00033
 289        4PZ         0.00000   0.00000   0.00000   0.00000   0.00000
 290        5S         -0.05473   0.03604   0.14214  -0.05251   0.02192
 291        5PX         0.00963  -0.00328  -0.01547   0.00253  -0.00057
 292        5PY         0.00487  -0.00509  -0.03106   0.01699  -0.00014
 293        5PZ         0.00000   0.00000   0.00000   0.00000   0.00000
 294        6D 0        0.00010   0.00008   0.00026   0.00022  -0.00103
 295        6D+1        0.00000   0.00000   0.00000   0.00000   0.00000
 296        6D-1        0.00000   0.00000   0.00000   0.00000   0.00000
 297        6D+2        0.00009   0.00009   0.00019   0.00022  -0.00081
 298        6D-2        0.00018  -0.00007   0.00070   0.00019  -0.00040
 299 18  H  1S         -0.00001  -0.00007  -0.00006  -0.00011   0.00032
 300        2S         -0.00030   0.00034  -0.00045   0.00044  -0.00154
 301        3S         -0.00033   0.00056  -0.00193   0.00033   0.00090
 302 19  H  1S         -0.00012  -0.00031  -0.00005  -0.00002  -0.00002
 303        2S          0.00033   0.00084   0.00022   0.00020  -0.00041
 304        3S          0.00153   0.00379   0.00039  -0.00020   0.00078
 305 20  H  1S          0.00039   0.00018  -0.00011   0.00000  -0.00004
 306        2S         -0.00127  -0.00137  -0.00005  -0.00018   0.00010
 307        3S          0.00161  -0.00106  -0.00073   0.00034   0.00093
 308 21  H  1S          0.00004  -0.00014   0.00041   0.00009   0.00005
 309        2S         -0.00050   0.00061  -0.00139  -0.00023  -0.00095
 310        3S         -0.00017   0.00090   0.00146   0.00053  -0.00091
 311 22  H  1S         -0.00008   0.00007  -0.00018   0.00001  -0.00025
 312        2S          0.00040  -0.00055   0.00045  -0.00030   0.00054
 313        3S          0.00051  -0.00048   0.00229   0.00029   0.00322
                           6         7         8         9        10
                           O         O         O         O         O
     Eigenvalues --   -10.36750 -10.35970 -10.35969 -10.35968 -10.35410
   1 1   C  1S          0.01261  -0.01209  -0.01171   0.00110   0.00060
   2        2S          0.01040  -0.00978  -0.00960   0.00093   0.00054
   3        2PX        -0.00001   0.00055   0.00044  -0.00008   0.00004
   4        2PY         0.00001   0.00010   0.00010  -0.00002   0.00002
   5        2PZ         0.00000   0.00000   0.00000   0.00000   0.00000
   6        3S          0.00027  -0.00097  -0.00006  -0.00025  -0.00022
   7        3PX         0.00005  -0.00215  -0.00143   0.00039  -0.00045
   8        3PY        -0.00003  -0.00044  -0.00055   0.00020  -0.00004
   9        3PZ         0.00000   0.00000   0.00000   0.00000   0.00000
  10        4S          0.00112   0.00444   0.00034   0.00774   0.00002
  11        4PX         0.00042   0.00267   0.00032   0.00237   0.00013
  12        4PY         0.00064  -0.00262  -0.00251  -0.00158   0.00308
  13        4PZ         0.00000   0.00000   0.00000   0.00000   0.00000
  14        5S          0.11044  -0.02260  -0.00781   0.02767  -0.05072
  15        5PX         0.02594  -0.00676  -0.00066   0.00919  -0.01076
  16        5PY         0.00313  -0.00264   0.00478   0.00314  -0.00168
  17        5PZ         0.00000   0.00000   0.00000   0.00000   0.00000
  18        6D 0       -0.00006   0.00047   0.00049  -0.00004  -0.00002
  19        6D+1        0.00000   0.00000   0.00000   0.00000   0.00000
  20        6D-1        0.00000   0.00000   0.00000   0.00000   0.00000
  21        6D+2        0.00004  -0.00110  -0.00085   0.00016  -0.00030
  22        6D-2        0.00005  -0.00005  -0.00006  -0.00005   0.00002
  23 2   C  1S          0.00038  -0.00075  -0.00007  -0.00036  -0.00039
  24        2S          0.00033  -0.00052  -0.00007  -0.00027  -0.00026
  25        2PX         0.00002   0.00003  -0.00001   0.00001   0.00001
  26        2PY        -0.00002   0.00003   0.00010  -0.00007   0.00000
  27        2PZ         0.00000   0.00000   0.00000   0.00000   0.00000
  28        3S          0.00000  -0.00039   0.00006  -0.00005  -0.00044
  29        3PX        -0.00012  -0.00049   0.00008  -0.00021  -0.00019
  30        3PY         0.00012  -0.00023  -0.00076   0.00053  -0.00002
  31        3PZ         0.00000   0.00000   0.00000   0.00000   0.00000
  32        4S         -0.00070  -0.00403  -0.00218  -0.00442   0.00474
  33        4PX        -0.00051  -0.00295  -0.00107  -0.00253   0.00200
  34        4PY         0.00006  -0.00030  -0.00027  -0.00009   0.00017
  35        4PZ         0.00000   0.00000   0.00000   0.00000   0.00000
  36        5S         -0.01409  -0.00058   0.01507   0.02097   0.02503
  37        5PX        -0.00374   0.00171   0.00148   0.00233   0.00805
  38        5PY         0.00801  -0.00026  -0.00159   0.00142   0.00069
  39        5PZ         0.00000   0.00000   0.00000   0.00000   0.00000
  40        6D 0        0.00005   0.00006   0.00000   0.00002   0.00001
  41        6D+1        0.00000   0.00000   0.00000   0.00000   0.00000
  42        6D-1        0.00000   0.00000   0.00000   0.00000   0.00000
  43        6D+2        0.00005   0.00023   0.00008   0.00003   0.00004
  44        6D-2        0.00006  -0.00006  -0.00040   0.00030   0.00001
  45 3   C  1S          0.01715  -0.00735   0.00797  -0.01292   0.00060
  46        2S          0.01414  -0.00590   0.00652  -0.01055   0.00054
  47        2PX         0.00003   0.00036  -0.00037   0.00050   0.00004
  48        2PY        -0.00001   0.00000   0.00002  -0.00002  -0.00001
  49        2PZ         0.00000   0.00000   0.00000   0.00000   0.00000
  50        3S          0.00051  -0.00093   0.00009  -0.00036  -0.00022
  51        3PX        -0.00019  -0.00148   0.00148  -0.00171  -0.00045
  52        3PY         0.00009  -0.00007  -0.00022   0.00023  -0.00004
  53        3PZ         0.00000   0.00000   0.00000   0.00000   0.00000
  54        4S          0.00187   0.00570   0.00559   0.00400   0.00002
  55        4PX         0.00100   0.00250   0.00123   0.00110   0.00066
  56        4PY         0.00124   0.00247   0.00015   0.00366  -0.00301
  57        4PZ         0.00000   0.00000   0.00000   0.00000   0.00000
  58        5S         -0.08181  -0.01251   0.03431  -0.00231  -0.05067
  59        5PX        -0.02267  -0.00455   0.01087   0.00198  -0.01085
  60        5PY         0.00072   0.00248  -0.00048  -0.00461  -0.00021
  61        5PZ         0.00000   0.00000   0.00000   0.00000   0.00000
  62        6D 0       -0.00002   0.00027  -0.00032   0.00053  -0.00002
  63        6D+1        0.00000   0.00000   0.00000   0.00000   0.00000
  64        6D-1        0.00000   0.00000   0.00000   0.00000   0.00000
  65        6D+2       -0.00012  -0.00069   0.00067  -0.00093  -0.00028
  66        6D-2       -0.00003  -0.00021   0.00026  -0.00025  -0.00012
  67 4   H  1S         -0.00003  -0.00013   0.00005  -0.00009   0.00000
  68        2S          0.00020   0.00024  -0.00007   0.00029  -0.00062
  69        3S          0.00077   0.00109  -0.00058   0.00185  -0.00058
  70 5   C  1S          0.00161   0.26129  -0.25706   0.42589  -0.02300
  71        2S          0.00140   0.21512  -0.21154   0.35044  -0.01880
  72        2PX         0.00008   0.00006  -0.00002  -0.00005   0.00033
  73        2PY        -0.00012   0.00014   0.00002  -0.00007   0.00070
  74        2PZ         0.00000   0.00000   0.00000   0.00000   0.00000
  75        3S         -0.00041   0.00861  -0.00895   0.01503  -0.00095
  76        3PX        -0.00056  -0.00034   0.00014   0.00033  -0.00119
  77        3PY         0.00063  -0.00083  -0.00017   0.00048  -0.00256
  78        3PZ         0.00000   0.00000   0.00000   0.00000   0.00000
  79        4S          0.00661  -0.01024   0.01311  -0.02300   0.00600
  80        4PX         0.00560   0.00156   0.00945  -0.00054   0.00327
  81        4PY        -0.00149  -0.00055   0.00075  -0.01054   0.00699
  82        4PZ         0.00000   0.00000   0.00000   0.00000   0.00000
  83        5S         -0.01658   0.00738  -0.01655   0.03134   0.00686
  84        5PX        -0.08835  -0.00332   0.02714   0.01796  -0.01652
  85        5PY         0.04115  -0.02141  -0.01394   0.00377  -0.03546
  86        5PZ         0.00000   0.00000   0.00000   0.00000   0.00000
  87        6D 0        0.00004  -0.00068   0.00067  -0.00111   0.00063
  88        6D+1        0.00000   0.00000   0.00000   0.00000   0.00000
  89        6D-1        0.00000   0.00000   0.00000   0.00000   0.00000
  90        6D+2        0.00010   0.00040  -0.00002  -0.00005   0.00087
  91        6D-2        0.00028  -0.00047   0.00008   0.00009  -0.00103
  92 6   C  1S          0.00003   0.03876  -0.00837   0.00137   0.56146
  93        2S          0.00006   0.03212  -0.00694   0.00113   0.46205
  94        2PX         0.00005  -0.00011  -0.00062  -0.00076   0.00000
  95        2PY        -0.00006   0.00018   0.00074  -0.00063   0.00000
  96        2PZ         0.00000   0.00000   0.00000   0.00000   0.00000
  97        3S         -0.00011   0.00115  -0.00025   0.00004   0.01969
  98        3PX        -0.00029   0.00041   0.00236   0.00288  -0.00001
  99        3PY         0.00040  -0.00069  -0.00281   0.00240   0.00000
 100        3PZ         0.00000   0.00000   0.00000   0.00000   0.00000
 101        4S         -0.00334   0.00824  -0.00178   0.00028  -0.03291
 102        4PX        -0.00199  -0.00214  -0.01227  -0.01499   0.00000
 103        4PY         0.00492   0.00358   0.01457  -0.01244   0.00000
 104        4PZ         0.00000   0.00000   0.00000   0.00000   0.00000
 105        5S         -0.06401   0.08930  -0.01931   0.00308   0.20980
 106        5PX         0.00050  -0.00190  -0.01107  -0.01351   0.00005
 107        5PY         0.00611   0.00323   0.01314  -0.01122   0.00000
 108        5PZ         0.00000   0.00000   0.00000   0.00000   0.00000
 109        6D 0        0.00003   0.00089  -0.00019   0.00003  -0.00145
 110        6D+1        0.00000   0.00000   0.00000   0.00000   0.00000
 111        6D-1        0.00000   0.00000   0.00000   0.00000   0.00000
 112        6D+2       -0.00015   0.00010   0.00069   0.00150   0.00000
 113        6D-2        0.00000   0.00034   0.00147  -0.00069   0.00000
 114 7   C  1S          0.00080   0.41428   0.37867  -0.02682  -0.02298
 115        2S          0.00066   0.34100   0.31156  -0.02206  -0.01879
 116        2PX         0.00000   0.00007  -0.00007  -0.00002   0.00044
 117        2PY        -0.00008  -0.00010   0.00010  -0.00003  -0.00063
 118        2PZ         0.00000   0.00000   0.00000   0.00000   0.00000
 119        3S          0.00004   0.01401   0.01351  -0.00097  -0.00095
 120        3PX         0.00002  -0.00039   0.00049   0.00013  -0.00162
 121        3PY         0.00051   0.00055  -0.00066   0.00020   0.00231
 122        3PZ         0.00000   0.00000   0.00000   0.00000   0.00000
 123        4S         -0.00509  -0.01856  -0.02143   0.00160   0.00600
 124        4PX        -0.00058  -0.00209  -0.00520   0.00808   0.00442
 125        4PY        -0.00144   0.00273   0.00886   0.00462  -0.00632
 126        4PZ         0.00000   0.00000   0.00000   0.00000   0.00000
 127        5S          0.01326   0.01878   0.03085  -0.00241   0.00686
 128        5PX         0.08784  -0.00989   0.01206   0.02706  -0.02246
 129        5PY         0.03468   0.01322  -0.01199   0.02104   0.03203
 130        5PZ         0.00000   0.00000   0.00000   0.00000   0.00000
 131        6D 0        0.00002  -0.00108  -0.00099   0.00007   0.00063
 132        6D+1        0.00000   0.00000   0.00000   0.00000   0.00000
 133        6D-1        0.00000   0.00000   0.00000   0.00000   0.00000
 134        6D+2       -0.00010   0.00019  -0.00009   0.00004   0.00046
 135        6D-2        0.00012   0.00053  -0.00024   0.00002   0.00127
 136 8   C  1S          0.01157  -0.01210  -0.01178   0.00059   0.00060
 137        2S          0.00950  -0.00979  -0.00966   0.00046   0.00054
 138        2PX        -0.00007  -0.00029  -0.00025  -0.00001  -0.00003
 139        2PY        -0.00005  -0.00048  -0.00038  -0.00002  -0.00003
 140        2PZ         0.00000   0.00000   0.00000   0.00000   0.00000
 141        3S          0.00045  -0.00097  -0.00002   0.00023  -0.00022
 142        3PX         0.00053   0.00114   0.00105   0.00018   0.00019
 143        3PY         0.00023   0.00186   0.00120   0.00015   0.00041
 144        3PZ         0.00000   0.00000   0.00000   0.00000   0.00000
 145        4S          0.00254   0.00468  -0.00101  -0.00754   0.00002
 146        4PX         0.00037   0.00157   0.00210  -0.00101  -0.00294
 147        4PY        -0.00206  -0.00350  -0.00067   0.00282   0.00093
 148        4PZ         0.00000   0.00000   0.00000   0.00000   0.00000
 149        5S         -0.08840  -0.02179  -0.01257  -0.02657  -0.05067
 150        5PX         0.00371   0.00459  -0.00311   0.00690   0.00524
 151        5PY         0.01977   0.00522   0.00356   0.00721   0.00950
 152        5PZ         0.00000   0.00000   0.00000   0.00000   0.00000
 153        6D 0       -0.00006   0.00047   0.00049  -0.00003  -0.00002
 154        6D+1        0.00000   0.00000   0.00000   0.00000   0.00000
 155        6D-1        0.00000   0.00000   0.00000   0.00000   0.00000
 156        6D+2        0.00033   0.00081   0.00063   0.00007   0.00024
 157        6D-2       -0.00004  -0.00075  -0.00060   0.00001  -0.00018
 158 9   C  1S         -0.00344  -0.00076  -0.00001   0.00034  -0.00039
 159        2S         -0.00291  -0.00053  -0.00002   0.00026  -0.00026
 160        2PX        -0.00025  -0.00004  -0.00010  -0.00005  -0.00001
 161        2PY         0.00024  -0.00002   0.00005   0.00003  -0.00001
 162        2PZ         0.00000   0.00000   0.00000   0.00000   0.00000
 163        3S          0.00000  -0.00040   0.00007   0.00003  -0.00044
 164        3PX         0.00110   0.00037   0.00076   0.00031   0.00008
 165        3PY        -0.00080   0.00040  -0.00039  -0.00030   0.00018
 166        3PZ         0.00000   0.00000   0.00000   0.00000   0.00000
 167        4S         -0.00485  -0.00417  -0.00138   0.00460   0.00474
 168        4PX         0.00014   0.00132   0.00044  -0.00101  -0.00085
 169        4PY         0.00334   0.00274   0.00049  -0.00238  -0.00182
 170        4PZ         0.00000   0.00000   0.00000   0.00000   0.00000
 171        5S          0.02043   0.00013   0.01120  -0.02329   0.02506
 172        5PX         0.00812  -0.00041   0.00135   0.00192  -0.00343
 173        5PY        -0.00561  -0.00176  -0.00162   0.00196  -0.00732
 174        5PZ         0.00000   0.00000   0.00000   0.00000   0.00000
 175        6D 0       -0.00033   0.00006   0.00000  -0.00002   0.00001
 176        6D+1        0.00000   0.00000   0.00000   0.00000   0.00000
 177        6D-1        0.00000   0.00000   0.00000   0.00000   0.00000
 178        6D+2       -0.00033  -0.00021  -0.00034  -0.00012  -0.00003
 179        6D-2       -0.00068   0.00011  -0.00030  -0.00020   0.00003
 180 10  C  1S          0.05025  -0.00745   0.00753  -0.01315   0.00060
 181        2S          0.04144  -0.00599   0.00611  -0.01076   0.00054
 182        2PX         0.00011  -0.00025   0.00019  -0.00037  -0.00003
 183        2PY        -0.00005   0.00029  -0.00021   0.00040   0.00003
 184        2PZ         0.00000   0.00000   0.00000   0.00000   0.00000
 185        3S          0.00146  -0.00084   0.00051  -0.00015  -0.00022
 186        3PX        -0.00083   0.00100  -0.00061   0.00152   0.00026
 187        3PY         0.00026  -0.00124   0.00067  -0.00131  -0.00037
 188        3PZ         0.00000   0.00000   0.00000   0.00000   0.00000
 189        4S         -0.00858   0.00299  -0.00802  -0.00254   0.00002
 190        4PX        -0.00155   0.00016  -0.00129   0.00180  -0.00274
 191        4PY        -0.00485   0.00248  -0.00411   0.00071  -0.00143
 192        4PZ         0.00000   0.00000   0.00000   0.00000   0.00000
 193        5S          0.12055  -0.02209  -0.01398  -0.02557  -0.05074
 194        5PX        -0.01244   0.00754   0.00634   0.00179   0.00683
 195        5PY         0.02415  -0.00407  -0.00291  -0.00672  -0.00848
 196        5PZ         0.00000   0.00000   0.00000   0.00000   0.00000
 197        6D 0       -0.00003   0.00028  -0.00030   0.00054  -0.00002
 198        6D+1        0.00000   0.00000   0.00000   0.00000   0.00000
 199        6D-1        0.00000   0.00000   0.00000   0.00000   0.00000
 200        6D+2       -0.00042   0.00036  -0.00020   0.00049   0.00017
 201        6D-2       -0.00029   0.00067  -0.00051   0.00092   0.00025
 202 11  H  1S          0.00003  -0.00013   0.00008  -0.00007   0.00000
 203        2S         -0.00066   0.00020  -0.00025   0.00020  -0.00062
 204        3S         -0.00144   0.00093  -0.00141   0.00145  -0.00058
 205 12  C  1S          0.00630   0.27364  -0.32666  -0.36625  -0.02297
 206        2S          0.00526   0.22528  -0.26882  -0.30137  -0.01877
 207        2PX         0.00024  -0.00015  -0.00002  -0.00008  -0.00077
 208        2PY        -0.00099  -0.00001   0.00003  -0.00003  -0.00007
 209        2PZ         0.00000   0.00000   0.00000   0.00000   0.00000
 210        3S          0.00002   0.00904  -0.01141  -0.01296  -0.00095
 211        3PX        -0.00096   0.00088   0.00021   0.00056   0.00281
 212        3PY         0.00407   0.00003  -0.00016   0.00018   0.00024
 213        3PZ         0.00000   0.00000   0.00000   0.00000   0.00000
 214        4S          0.00398  -0.01091   0.01689   0.02003   0.00600
 215        4PX         0.00017   0.00028  -0.00564  -0.00924  -0.00768
 216        4PY        -0.01450  -0.00178  -0.00795   0.00451  -0.00067
 217        4PZ         0.00000   0.00000   0.00000   0.00000   0.00000
 218        5S          0.00009   0.00830  -0.02176  -0.02775   0.00683
 219        5PX        -0.00288   0.02098   0.00546   0.00953   0.03903
 220        5PY        -0.13705  -0.00483  -0.02711   0.02048   0.00343
 221        5PZ         0.00000   0.00000   0.00000   0.00000   0.00000
 222        6D 0        0.00021  -0.00071   0.00085   0.00096   0.00063
 223        6D+1        0.00000   0.00000   0.00000   0.00000   0.00000
 224        6D-1        0.00000   0.00000   0.00000   0.00000   0.00000
 225        6D+2       -0.00004  -0.00060   0.00005  -0.00012  -0.00133
 226        6D-2        0.00205  -0.00010   0.00004  -0.00004  -0.00023
 227 13  C  1S          0.00692  -0.00062   0.00055  -0.00006  -0.00039
 228        2S          0.00592  -0.00043   0.00040  -0.00004  -0.00026
[...]
   8         O               -10.359686         15.953148
   9         O               -10.359683         15.953107
  10         O               -10.354104         15.953184
  11         O               -10.346163         15.953934
  12         O               -10.346162         15.954058
  13         O               -10.346150         15.954018
  14         O                -1.068264          1.482175
  15         O                -1.008299          1.532280
  16         O                -1.008276          1.532267
  17         O                -0.930147          1.640277
  18         O                -0.930142          1.640287
  19         O                -0.919094          1.680118
  20         O                -0.846739          1.657485
  21         O                -0.801082          1.484912
  22         O                -0.788522          1.498299
  23         O                -0.788519          1.498341
  24         O                -0.693045          1.353780
  25         O                -0.693034          1.353867
  26         O                -0.683062          1.385015
  27         O                -0.683043          1.385034
  28         O                -0.647226          1.177853
  29         O                -0.607151          1.411608
  30         O                -0.607129          1.411586
  31         O                -0.605417          1.501458
  32         O                -0.581668          0.913824
  33         O                -0.577857          1.399789
  34         O                -0.561989          1.365547
  35         O                -0.561953          1.365629
  36         O                -0.551722          1.471372
  37         O                -0.512434          1.015240
  38         O                -0.512412          1.015251
  39         O                -0.506146          1.580726
  40         O                -0.506135          1.580774
  41         O                -0.427254          1.161219
  42         O                -0.427248          1.161239
  43         O                -0.423711          1.186460
  44         V                -0.291617          1.306009
  45         V                -0.187798          1.348547
  46         V                -0.181124          1.395359
  47         V                -0.181119          1.395384
  48         V                -0.119204          0.374763
  49         V                -0.102035          0.373646
  50         V                -0.102023          0.373667
  51         V                -0.092056          0.331802
  52         V                -0.082801          0.399107
  53         V                -0.082799          0.399048
  54         V                -0.082308          1.272857
  55         V                -0.082293          1.273033
  56         V                -0.072844          0.251692
  57         V                -0.059171          0.458769
  58         V                -0.056946          0.349923
  59         V                -0.042080          0.379405
  60         V                -0.041976          0.378996
  61         V                -0.040487          0.337058
  62         V                -0.040405          0.337295
  63         V                -0.029455          0.472618
  64         V                -0.029446          0.472526
  65         V                -0.007161          0.327041
  66         V                 0.000883          0.542967
  67         V                 0.000889          0.543619
  68         V                 0.013102          0.496823
  69         V                 0.013111          0.496667
  70         V                 0.017451          0.671219
  71         V                 0.017689          0.636131
  72         V                 0.022529          0.414400
  73         V                 0.022578          0.414971
  74         V                 0.034690          0.307791
  75         V                 0.038151          0.544912
  76         V                 0.043314          0.802026
  77         V                 0.051976          0.814450
  78         V                 0.051982          0.814343
  79         V                 0.064193          0.369547
  80         V                 0.064443          0.369349
  81         V                 0.065921          0.584586
  82         V                 0.066069          0.933261
  83         V                 0.066081          0.932128
  84         V                 0.070495          1.628391
  85         V                 0.075196          0.372069
  86         V                 0.085513          1.203143
  87         V                 0.085547          1.202789
  88         V                 0.093882          0.356072
  89         V                 0.094168          0.355938
  90         V                 0.100431          1.018559
  91         V                 0.100554          0.661392
  92         V                 0.116112          1.260000
  93         V                 0.116133          1.259372
  94         V                 0.116512          0.458030
  95         V                 0.122611          0.471965
  96         V                 0.123028          0.476571
  97         V                 0.130686          1.267036
  98         V                 0.138762          0.962340
  99         V                 0.138809          0.957992
 100         V                 0.146780          0.470995
 101         V                 0.151433          1.085906
 102         V                 0.151438          1.086126
 103         V                 0.162031          1.027070
 104         V                 0.162159          1.027224
 105         V                 0.176289          1.321328
 106         V                 0.179328          0.754633
 107         V                 0.179481          0.762053
 108         V                 0.184812          0.889461
 109         V                 0.191408          0.780436
 110         V                 0.191575          0.774684
 111         V                 0.217439          0.786708
 112         V                 0.222005          0.821177
 113         V                 0.222081          0.820218
 114         V                 0.257715          0.669233
 115         V                 0.296121          1.478474
 116         V                 0.301063          2.647493
 117         V                 0.318493          1.901852
 118         V                 0.318707          1.201515
 119         V                 0.318734          1.195594
 120         V                 0.342034          2.069099
 121         V                 0.342049          2.069564
 122         V                 0.374193          1.388751
 123         V                 0.375196          1.700108
 124         V                 0.397318          1.457966
 125         V                 0.397353          1.457501
 126         V                 0.402621          1.386270
 127         V                 0.402648          1.386268
 128         V                 0.422018          1.473093
 129         V                 0.422103          1.472980
 130         V                 0.423766          1.552772
 131         V                 0.430675          1.765440
 132         V                 0.430883          1.770641
 133         V                 0.432171          1.687589
 134         V                 0.434932          1.747654
 135         V                 0.434998          1.741357
 136         V                 0.453878          1.484385
 137         V                 0.482859          1.485330
 138         V                 0.486881          1.971120
 139         V                 0.492594          1.824940
 140         V                 0.492770          1.824695
 141         V                 0.493276          1.503143
 142         V                 0.494744          1.570992
 143         V                 0.494764          1.570985
 144         V                 0.548890          2.222000
 145         V                 0.556121          1.587751
 146         V                 0.556146          1.587825
 147         V                 0.558821          2.113034
 148         V                 0.566034          2.120343
 149         V                 0.566042          2.120126
 150         V                 0.582887          2.308900
 151         V                 0.582898          2.309323
 152         V                 0.601767          2.196591
 153         V                 0.601795          2.196972
 154         V                 0.627136          1.846982
 155         V                 0.627892          1.668617
 156         V                 0.678741          1.823218
 157         V                 0.678748          1.823378
 158         V                 0.683245          2.011679
 159         V                 0.688194          1.561325
 160         V                 0.694936          2.122707
 161         V                 0.694953          2.122599
 162         V                 0.726964          1.786980
 163         V                 0.733246          2.243997
 164         V                 0.733265          2.243563
 165         V                 0.774061          2.350624
 166         V                 0.774156          2.341613
 167         V                 0.776540          2.678846
 168         V                 0.782201          2.199445
 169         V                 0.782270          2.190960
 170         V                 0.791640          1.911491
 171         V                 0.791654          1.911519
 172         V                 0.805412          1.880833
 173         V                 0.827991          1.939354
 174         V                 0.828049          1.938364
 175         V                 0.867893          2.390871
 176         V                 0.871989          2.021826
 177         V                 0.927037          2.062806
 178         V                 0.927051          2.062842
 179         V                 0.942020          1.970336
 180         V                 0.942102          1.970545
 181         V                 0.958427          2.086615
 182         V                 0.974451          2.333506
 183         V                 1.015983          2.204109
 184         V                 1.016035          2.204167
 185         V                 1.016677          1.837490
 186         V                 1.026902          2.221732
 187         V                 1.033901          2.242130
 188         V                 1.033937          2.242128
 189         V                 1.061563          2.269120
 190         V                 1.061601          2.269203
 191         V                 1.200688          2.644811
 192         V                 1.225304          2.551954
 193         V                 1.245877          2.276833
 194         V                 1.245917          2.276687
 195         V                 1.320411          2.590642
 196         V                 1.320425          2.591369
 197         V                 1.329673          2.485691
 198         V                 1.336336          2.537823
 199         V                 1.336356          2.538742
 200         V                 1.339245          2.701183
 201         V                 1.372014          2.831964
 202         V                 1.409741          2.599147
 203         V                 1.409788          2.599208
 204         V                 1.422794          2.996491
 205         V                 1.422890          2.996513
 206         V                 1.528973          3.095242
 207         V                 1.529078          3.095343
 208         V                 1.557765          3.053947
 209         V                 1.579737          3.130926
 210         V                 1.618571          2.857725
 211         V                 1.675275          2.922225
 212         V                 1.675317          2.922265
 213         V                 1.675676          3.147363
 214         V                 1.675689          3.147378
 215         V                 1.695856          3.114838
 216         V                 1.705530          2.968358
 217         V                 1.705582          2.968393
 218         V                 1.713588          3.078675
 219         V                 1.739605          3.258984
 220         V                 1.739675          3.259132
 221         V                 1.748747          3.139810
 222         V                 1.814323          3.298754
 223         V                 1.820735          3.173352
 224         V                 1.820902          3.173333
 225         V                 1.854586          3.326137
 226         V                 1.854645          3.326229
 227         V                 1.866014          3.591183
 228         V                 1.885170          3.828150
 229         V                 1.885234          3.828396
 230         V                 1.963546          3.865957
 231         V                 1.984212          3.940279
 232         V                 1.984221          3.940154
 233         V                 2.013542          3.217487
 234         V                 2.090891          3.865792
 235         V                 2.156254          4.386640
 236         V                 2.156307          4.386626
 237         V                 2.206197          4.250528
 238         V                 2.206263          4.250453
 239         V                 2.234066          3.538289
 240         V                 2.234091          3.538311
 241         V                 2.249656          4.549886
 242         V                 2.252259          4.291285
 243         V                 2.269650          4.469058
 244         V                 2.269775          4.469132
 245         V                 2.312515          4.180203
 246         V                 2.312595          4.180256
 247         V                 2.334868          4.545476
 248         V                 2.455295          6.350585
 249         V                 2.502110          6.313164
 250         V                 2.502118          6.313177
 251         V                 2.518399          5.003103
 252         V                 2.557621          4.157978
 253         V                 2.601051          4.686857
 254         V                 2.601163          4.687320
 255         V                 2.602866          6.260129
 256         V                 2.602884          6.260109
 257         V                 2.656770          6.225638
 258         V                 2.674564          4.824546
 259         V                 2.674695          4.824732
 260         V                 2.688175          6.295276
 261         V                 2.727370          6.409349
 262         V                 2.743117          6.387338
 263         V                 2.743129          6.387320
 264         V                 2.881869          6.398193
 265         V                 2.881891          6.398146
 266         V                 2.932199          6.584953
 267         V                 3.018360          7.267540
 268         V                 3.018450          7.267692
 269         V                 3.086674          7.348224
 270         V                 3.091413          6.079751
 271         V                 3.110814          6.941191
 272         V                 3.110845          6.941242
 273         V                 3.125682          6.810052
 274         V                 3.152815          6.700478
 275         V                 3.171018          6.768969
 276         V                 3.171034          6.768922
 277         V                 3.202084          7.213276
 278         V                 3.202135          7.212990
 279         V                 3.268138          6.189082
 280         V                 3.268144          6.188422
 281         V                 3.313264          6.357668
 282         V                 3.389457          6.350109
 283         V                 3.389494          6.349275
 284         V                 3.430165          7.029912
 285         V                 3.479704          7.065327
 286         V                 3.479804          7.064646
 287         V                 3.657390          7.270430
 288         V                 3.723587          7.658775
 289         V                 3.811467          7.563945
 290         V                 3.811498          7.564020
 291         V                 4.109008          7.588949
 292         V                 4.109078          7.589183
 293         V                 4.560647          7.779647
 294         V                 4.634653          7.898039
 295         V                 4.634731          7.897832
 296         V                23.064810         60.102477
 297         V                23.454426         60.240291
 298         V                23.454615         60.240381
 299         V                23.735528         60.358574
 300         V                23.735625         60.358620
 301         V                23.770679         60.378765
 302         V                23.796261         60.366682
 303         V                23.844171         60.361245
 304         V                23.844209         60.361268
 305         V                23.860482         60.360191
 306         V                23.944930         60.388209
 307         V                23.945027         60.388260
 308         V                23.948537         60.365453
 Total kinetic energy from orbitals= 4.985005034723D+02
 1\1\GINC-HOGWARTS\SP\RB3LYP\6-311+G(d)\C13H9(1+)\ANUJA\04-May-2014\0\\
 # B3LYP/6-311+G* NMR=GIAO POP=FULL SCF(MAXCYCLE=512)\\Compund 12 from 
 Renana's XY Paper # Center 1\\1,1\C,0,-2.81984,-0.26662,0.\C,0,-3.4091
 8,-1.52665,0.\C,0,-2.61122,-2.666,0.\H,0,-3.0743,-3.64761,0.\C,0,-1.19
 965,-2.56878,0.\C,0,-0.59882,-1.28214,0.\C,0,-1.41266,-0.11851,0.\C,0,
 -0.79091,1.15247,0.\C,0,0.59485,1.27379,0.\C,0,-0.3677,-3.71325,0.\H,0
 ,-0.82286,-4.69853,0.\C,0,0.81609,-1.15911,0.\C,0,1.01825,-3.59354,0.\
 H,0,1.63897,-4.48134,0.\C,0,1.60608,-2.33283,0.\H,0,2.68761,-2.2426,0.
 \C,0,1.39145,0.13351,0.\H,0,2.47226,0.23209,0.\H,0,-4.48836,-1.62058,0
 .\H,0,-3.44555,0.62018,0.\H,0,-1.40935,2.04434,0.\H,0,1.05321,2.25532,
 0.\Bq,0,-1.19965,-2.56878,-1.7\Bq,0,-1.15734,-2.47817,-1.7\Bq,0,-1.115
 03,-2.38756,-1.7\Bq,0,-1.07272,-2.29695,-1.7\Bq,0,-1.0304,-2.20635,-1.
 7\Bq,0,-0.98809,-2.11574,-1.7\Bq,0,-0.94578,-2.02513,-1.7\Bq,0,-0.9034
 7,-1.93452,-1.7\Bq,0,-0.86116,-1.84392,-1.7\Bq,0,-0.81884,-1.75331,-1.
 7\Bq,0,-0.77653,-1.6627,-1.7\Bq,0,-0.73422,-1.57209,-1.7\Bq,0,-0.69191
 ,-1.48149,-1.7\Bq,0,-0.64959,-1.39088,-1.7\Bq,0,-0.59882,-1.28214,-1.7
 \Bq,0,-0.5565,-1.19154,-1.7\Bq,0,-0.51418,-1.10093,-1.7\Bq,0,-0.47187,
 -1.01033,-1.7\Bq,0,-0.42955,-0.91972,-1.7\Bq,0,-0.38723,-0.82912,-1.7\
 Bq,0,-0.34492,-0.73851,-1.7\Bq,0,-0.3026,-0.64791,-1.7\Bq,0,-0.26028,-
 0.5573,-1.7\Bq,0,-0.21797,-0.46669,-1.7\Bq,0,-0.17565,-0.37609,-1.7\Bq
 ,0,-0.13333,-0.28548,-1.7\Bq,0,-0.09102,-0.19488,-1.7\Bq,0,-0.0487,-0.
 10427,-1.7\Bq,0,0.,0.,-1.7\Bq,0,0.04231,0.09061,-1.7\Bq,0,0.08463,0.18
 121,-1.7\Bq,0,0.12694,0.27182,-1.7\Bq,0,0.16925,0.36243,-1.7\Bq,0,0.21
 156,0.45303,-1.7\Bq,0,0.25388,0.54364,-1.7\Bq,0,0.29619,0.63425,-1.7\B
 q,0,0.3385,0.72486,-1.7\Bq,0,0.38082,0.81546,-1.7\Bq,0,0.42313,0.90607
 ,-1.7\Bq,0,0.46544,0.99668,-1.7\Bq,0,0.50775,1.08728,-1.7\Bq,0,0.55007
 ,1.17789,-1.7\\Version=EM64L-G09RevD.01\HF=-500.6820795\RMSD=1.953e-09
 \Dipole=-0.0003735,0.0001678,0.\Quadrupole=7.8408296,12.4235869,-20.26
 44165,2.7448001,0.,0.\PG=C01 [X(C13H9)]\\@


 WHAT THE SLIME CONTAINS, THE GLOWING REVEALS
 BY THE FLAME'S BRIGHT HUE WHEN YOU IGNITE IT.
   --  LEONARD THURNEYSSER, 1531-1596
 DESCRIBING HIS FLAME PHOTOLYSIS ANALYTIC METHOD
 Job cpu time:       0 days  0 hours 20 minutes  9.9 seconds.
 File lengths (MBytes):  RWF=     57 Int=      0 D2E=      0 Chk=      6 Scr=      1
 Normal termination of Gaussian 09 at Sun May  4 19:31:14 2014.
