 Entering Gaussian System, Link 0=/usr/local/g09/g09
 Input=/home/anuja/input/phenalene-z-sigma-center1.in
 Output=/home/anuja/output/phenalene-z-sigma-center1.log
 Initial command:
 /usr/local/g09-D.01/g09/l1.exe /gtmp/Gau-5472.inp -scrdir=/gtmp/
 Entering Link 1 = /usr/local/g09-D.01/g09/l1.exe PID=      5474.
  
 Copyright (c) 1988,1990,1992,1993,1995,1998,2003,2009,2013,
            Gaussian, Inc.  All Rights Reserved.
  
 This is part of the Gaussian(R) 09 program.  It is based on
 the Gaussian(R) 03 system (copyright 2003, Gaussian, Inc.),
 the Gaussian(R) 98 system (copyright 1998, Gaussian, Inc.),
 the Gaussian(R) 94 system (copyright 1995, Gaussian, Inc.),
 the Gaussian 92(TM) system (copyright 1992, Gaussian, Inc.),
 the Gaussian 90(TM) system (copyright 1990, Gaussian, Inc.),
 the Gaussian 88(TM) system (copyright 1988, Gaussian, Inc.),
 the Gaussian 86(TM) system (copyright 1986, Carnegie Mellon
 University), and the Gaussian 82(TM) system (copyright 1983,
 Carnegie Mellon University). Gaussian is a federally registered
 trademark of Gaussian, Inc.
  
 This software contains proprietary and confidential information,
 including trade secrets, belonging to Gaussian, Inc.
  
 This software is provided under written license and may be
 used, copied, transmitted, or stored only in accord with that
 written license.
  
 The following legend is applicable only to US Government
 contracts under FAR:
  
                    RESTRICTED RIGHTS LEGEND
  
 Use, reproduction and disclosure by the US Government is
 subject to restrictions as set forth in subparagraphs (a)
 and (c) of the Commercial Computer Software - Restricted
 Rights clause in FAR 52.227-19.
  
 Gaussian, Inc.
 340 Quinnipiac St., Bldg. 40, Wallingford CT 06492
  
  
 ---------------------------------------------------------------
 Warning -- This program may not be used in any manner that
 competes with the business of Gaussian, Inc. or will provide
 assistance to any competitor of Gaussian, Inc.  The licensee
 of this program is prohibited from giving any competitor of
 Gaussian, Inc. access to this program.  By using this program,
 the user acknowledges that Gaussian, Inc. is engaged in the
 business of creating and licensing software in the field of
 computational chemistry and represents and warrants to the
 licensee that it is not a competitor of Gaussian, Inc. and that
 it will not use this program in any manner prohibited above.
 ---------------------------------------------------------------
  

 Cite this work as:
 Gaussian 09, Revision D.01,
 M. J. Frisch, G. W. Trucks, H. B. Schlegel, G. E. Scuseria, 
 M. A. Robb, J. R. Cheeseman, G. Scalmani, V. Barone, B. Mennucci, 
 G. A. Petersson, H. Nakatsuji, M. Caricato, X. Li, H. P. Hratchian, 
 A. F. Izmaylov, J. Bloino, G. Zheng, J. L. Sonnenberg, M. Hada, 
 M. Ehara, K. Toyota, R. Fukuda, J. Hasegawa, M. Ishida, T. Nakajima, 
 Y. Honda, O. Kitao, H. Nakai, T. Vreven, J. A. Montgomery, Jr., 
 J. E. Peralta, F. Ogliaro, M. Bearpark, J. J. Heyd, E. Brothers, 
 K. N. Kudin, V. N. Staroverov, T. Keith, R. Kobayashi, J. Normand, 
 K. Raghavachari, A. Rendell, J. C. Burant, S. S. Iyengar, J. Tomasi, 
 M. Cossi, N. Rega, J. M. Millam, M. Klene, J. E. Knox, J. B. Cross, 
 V. Bakken, C. Adamo, J. Jaramillo, R. Gomperts, R. E. Stratmann, 
 O. Yazyev, A. J. Austin, R. Cammi, C. Pomelli, J. W. Ochterski, 
 R. L. Martin, K. Morokuma, V. G. Zakrzewski, G. A. Voth, 
 P. Salvador, J. J. Dannenberg, S. Dapprich, A. D. Daniels, 
 O. Farkas, J. B. Foresman, J. V. Ortiz, J. Cioslowski, 
 and D. J. Fox, Gaussian, Inc., Wallingford CT, 2013.
 
 ******************************************
 Gaussian 09:  EM64L-G09RevD.01 24-Apr-2013
                 4-May-2014 
 ******************************************
 %NPROC=6
 Will use up to    6 processors via shared memory.
 %MEM=6024MB
 ----------------------------------------------------
 # B3LYP/6-311+G* NMR=GIAO POP=FULL SCF(MAXCYCLE=512)
 ----------------------------------------------------
 1/38=1/1;
 2/12=2,17=6,18=5,40=1/2;
 3/5=4,6=6,7=11,11=2,16=1,25=1,30=1,74=-5/1,2,8,3;
 4//1;
 5/5=2,7=512,38=5/2;
 8/6=1,10=90,11=11/1;
 10/13=100,45=16/2;
 6/7=3,28=1/1;
 99/9=1/99;
 -------------------------------------------------------------
 -------------------------------------------------- # Center 1
 -------------------------------------------------------------
 Symbolic Z-matrix:
 Charge =  0 Multiplicity = 1
 6                    -1.21707   0.68725   0. 
 6                    -1.21707  -0.70379   0. 
 6                    -0.01156  -1.39776   0. 
 1                    -0.01514  -2.48311   0. 
 6                     1.22587  -0.71165   0. 
 6                     1.22501   0.70836   0. 
 6                    -0.00518   1.41759   0. 
 6                     0.01954   2.83229   0. 
 6                     1.22338   3.52928   0. 
 6                     2.42805   2.83389   0. 
 6                     2.45453   1.41926   0. 
 6                     3.66739   0.69078   0. 
 6                     3.66905  -0.70023   0. 
 6                     2.46435  -1.39586   0. 
 1                     2.4695   -2.48118   0. 
 1                     4.60745  -1.24144   0. 
 1                     4.60883   1.23072   0. 
 1                     3.36531   3.38111   0. 
 1                     1.22272   4.61257   0. 
 1                    -0.91852   3.37815   0. 
 1                    -2.15481  -1.24609   0. 
 1                    -2.15957   1.22543   0. 
 1                     2.45453   1.41926  -1. 
 1                     1.22587  -0.71165  -1. 
 1                     1.22501   0.70836  -1. 
 1                    -0.00518   1.41759  -1. 
 1                    -1.29296   0.73011  -0.9962 
 1                    -1.29252  -0.74742  -0.9962 
 1                    -0.01228  -1.48491  -0.99619 
 1                     3.74323   0.73374  -0.9962 
 1                     3.74456  -0.74376  -0.9962 
 1                     2.46518  -1.48301  -0.99619 
 1                    -0.05558   2.87648  -0.9962 
 1                     1.22333   3.61644  -0.9962 
 1                     2.50311   2.87819  -0.9962 
 bq                    0.        0.        0. 
 bq                    0.        0.        0.1 
 bq                    0.        0.        0.2 
 bq                    0.        0.        0.3 
 bq                    0.        0.        0.4 
 bq                    0.        0.        0.5 
 bq                    0.        0.        0.6 
 bq                    0.        0.        0.7 
 bq                    0.        0.        0.8 
 bq                    0.        0.        0.9 
 bq                    0.        0.        1. 
 bq                    0.        0.        1.1 
 bq                    0.        0.        1.2 
 bq                    0.        0.        1.3 
 bq                    0.        0.        1.4 
 bq                    0.        0.        1.5 
 bq                    0.        0.        1.6 
 bq                    0.        0.        1.7 
 bq                    0.        0.        1.8 
 bq                    0.        0.        1.9 
 bq                    0.        0.        2. 
 bq                    0.        0.        2.1 
 bq                    0.        0.        2.2 
 bq                    0.        0.        2.3 
 bq                    0.        0.        2.4 
 bq                    0.        0.        2.5 
 bq                    0.        0.        2.6 
 bq                    0.        0.        2.7 
 bq                    0.        0.        2.8 
 bq                    0.        0.        2.9 
 bq                    0.        0.        3. 
 bq                    0.        0.        3.1 
 bq                    0.        0.        3.2 
 bq                    0.        0.        3.3 
 bq                    0.        0.        3.4 
 bq                    0.        0.        3.5 
 bq                    0.        0.        3.6 
 bq                    0.        0.        3.7 
 bq                    0.        0.        3.8 
 bq                    0.        0.        3.9 
 
 Symmetry turned off:
 Cannot cope with ghost atoms or with translation vectors.
 Stoichiometry    C13H22
 Framework group  C1[X(C13H22)]
 NUMDOF-- NAT=    35 NAtoms=    75
 Deg. of freedom     0
 Full point group                 C1      NOp   1
                          Input orientation:                          
 ---------------------------------------------------------------------
 Center     Atomic      Atomic             Coordinates (Angstroms)
 Number     Number       Type             X           Y           Z
 ---------------------------------------------------------------------
      1          6           0       -1.217070    0.687250    0.000000
      2          6           0       -1.217070   -0.703790    0.000000
      3          6           0       -0.011560   -1.397760    0.000000
      4          1           0       -0.015140   -2.483110    0.000000
      5          6           0        1.225870   -0.711650    0.000000
      6          6           0        1.225010    0.708360    0.000000
      7          6           0       -0.005180    1.417590    0.000000
      8          6           0        0.019540    2.832290    0.000000
      9          6           0        1.223380    3.529280    0.000000
     10          6           0        2.428050    2.833890    0.000000
     11          6           0        2.454530    1.419260    0.000000
     12          6           0        3.667390    0.690780    0.000000
     13          6           0        3.669050   -0.700230    0.000000
     14          6           0        2.464350   -1.395860    0.000000
     15          1           0        2.469500   -2.481180    0.000000
     16          1           0        4.607450   -1.241440    0.000000
     17          1           0        4.608830    1.230720    0.000000
     18          1           0        3.365310    3.381110    0.000000
     19          1           0        1.222720    4.612570    0.000000
     20          1           0       -0.918520    3.378150    0.000000
     21          1           0       -2.154810   -1.246090    0.000000
     22          1           0       -2.159570    1.225430    0.000000
     23          1           0        2.454530    1.419260   -1.000000
     24          1           0        1.225870   -0.711650   -1.000000
     25          1           0        1.225010    0.708360   -1.000000
     26          1           0       -0.005180    1.417590   -1.000000
     27          1           0       -1.292960    0.730110   -0.996200
     28          1           0       -1.292520   -0.747420   -0.996200
     29          1           0       -0.012280   -1.484910   -0.996190
     30          1           0        3.743230    0.733740   -0.996200
     31          1           0        3.744560   -0.743760   -0.996200
     32          1           0        2.465180   -1.483010   -0.996190
     33          1           0       -0.055580    2.876480   -0.996200
     34          1           0        1.223330    3.616440   -0.996200
     35          1           0        2.503110    2.878190   -0.996200
     36          0           0        0.000000    0.000000    0.000000
     37          0           0        0.000000    0.000000    0.100000
     38          0           0        0.000000    0.000000    0.200000
     39          0           0        0.000000    0.000000    0.300000
     40          0           0        0.000000    0.000000    0.400000
     41          0           0        0.000000    0.000000    0.500000
     42          0           0        0.000000    0.000000    0.600000
     43          0           0        0.000000    0.000000    0.700000
     44          0           0        0.000000    0.000000    0.800000
     45          0           0        0.000000    0.000000    0.900000
     46          0           0        0.000000    0.000000    1.000000
     47          0           0        0.000000    0.000000    1.100000
     48          0           0        0.000000    0.000000    1.200000
     49          0           0        0.000000    0.000000    1.300000
     50          0           0        0.000000    0.000000    1.400000
     51          0           0        0.000000    0.000000    1.500000
     52          0           0        0.000000    0.000000    1.600000
     53          0           0        0.000000    0.000000    1.700000
     54          0           0        0.000000    0.000000    1.800000
     55          0           0        0.000000    0.000000    1.900000
     56          0           0        0.000000    0.000000    2.000000
     57          0           0        0.000000    0.000000    2.100000
     58          0           0        0.000000    0.000000    2.200000
     59          0           0        0.000000    0.000000    2.300000
     60          0           0        0.000000    0.000000    2.400000
     61          0           0        0.000000    0.000000    2.500000
     62          0           0        0.000000    0.000000    2.600000
     63          0           0        0.000000    0.000000    2.700000
     64          0           0        0.000000    0.000000    2.800000
     65          0           0        0.000000    0.000000    2.900000
     66          0           0        0.000000    0.000000    3.000000
     67          0           0        0.000000    0.000000    3.100000
     68          0           0        0.000000    0.000000    3.200000
     69          0           0        0.000000    0.000000    3.300000
     70          0           0        0.000000    0.000000    3.400000
     71          0           0        0.000000    0.000000    3.500000
     72          0           0        0.000000    0.000000    3.600000
     73          0           0        0.000000    0.000000    3.700000
     74          0           0        0.000000    0.000000    3.800000
     75          0           0        0.000000    0.000000    3.900000
 ---------------------------------------------------------------------
 Rotational constants (GHZ):      1.0112111      1.0109887      0.5180649
 Standard basis: 6-311+G(d) (5D, 7F)
 Warning:  center  36 has no basis functions!
 Warning:  center  37 has no basis functions!
 Warning:  center  38 has no basis functions!
 Warning:  center  39 has no basis functions!
 Warning:  center  40 has no basis functions!
 Warning:  center  41 has no basis functions!
 Warning:  center  42 has no basis functions!
 Warning:  center  43 has no basis functions!
 Warning:  center  44 has no basis functions!
 Warning:  center  45 has no basis functions!
 Warning:  center  46 has no basis functions!
 Warning:  center  47 has no basis functions!
 Warning:  center  48 has no basis functions!
 Warning:  center  49 has no basis functions!
 Warning:  center  50 has no basis functions!
 Warning:  center  51 has no basis functions!
 Warning:  center  52 has no basis functions!
 Warning:  center  53 has no basis functions!
 Warning:  center  54 has no basis functions!
 Warning:  center  55 has no basis functions!
 Warning:  center  56 has no basis functions!
 Warning:  center  57 has no basis functions!
 Warning:  center  58 has no basis functions!
 Warning:  center  59 has no basis functions!
 Warning:  center  60 has no basis functions!
 Warning:  center  61 has no basis functions!
 Warning:  center  62 has no basis functions!
 Warning:  center  63 has no basis functions!
 Warning:  center  64 has no basis functions!
 Warning:  center  65 has no basis functions!
 Warning:  center  66 has no basis functions!
 Warning:  center  67 has no basis functions!
 Warning:  center  68 has no basis functions!
 Warning:  center  69 has no basis functions!
 Warning:  center  70 has no basis functions!
 Warning:  center  71 has no basis functions!
 Warning:  center  72 has no basis functions!
 Warning:  center  73 has no basis functions!
 Warning:  center  74 has no basis functions!
 Warning:  center  75 has no basis functions!
   352 basis functions,   578 primitive gaussians,   365 cartesian basis functions
    50 alpha electrons       50 beta electrons
       nuclear repulsion energy       943.7993741990 Hartrees.
 NAtoms=   75 NActive=   75 NUniq=   75 SFac= 1.00D+00 NAtFMM=   60 NAOKFM=T Big=T
 Integral buffers will be    131072 words long.
 Raffenetti 2 integral format.
 Two-electron integral symmetry is turned off.
 One-electron integrals computed using PRISM.
 NBasis=   352 RedAO= T EigKep=  1.05D-06  NBF=   352
 NBsUse=   347 1.00D-06 EigRej=  8.03D-07 NBFU=   347
 ExpMin= 4.38D-02 ExpMax= 4.56D+03 ExpMxC= 6.82D+02 IAcc=2 IRadAn=         4 AccDes= 0.00D+00
 Harris functional with IExCor=  402 and IRadAn=       4 diagonalized for initial guess.
 HarFok:  IExCor=  402 AccDes= 0.00D+00 IRadAn=         4 IDoV= 1 UseB2=F ITyADJ=14
 ICtDFT=  3500011 ScaDFX=  1.000000  1.000000  1.000000  1.000000
 FoFCou: FMM=F IPFlag=           0 FMFlag=      100000 FMFlg1=        2001
         NFxFlg=           0 DoJE=T BraDBF=F KetDBF=T FulRan=T
         wScrn=  0.000000 ICntrl=     500 IOpCl=  0 I1Cent=   200000004 NGrid=           0
         NMat0=    1 NMatS0=      1 NMatT0=    0 NMatD0=    1 NMtDS0=    0 NMtDT0=    0
 Symmetry not used in FoFCou.
 Requested convergence on RMS density matrix=1.00D-08 within 512 cycles.
 Requested convergence on MAX density matrix=1.00D-06.
 Requested convergence on             energy=1.00D-06.
 No special actions if energy rises.
 DSYEVD-2 returned Info=       91131 IAlg= 4 N=   347 NDim=   347 NE2=     2274265 trying  DSYEV.
 SCF Done:  E(RB3LYP) =  -507.519076467     A.U. after   17 cycles
            NFock= 17  Conv=0.64D-08     -V/T= 1.9884
 DoSCS=F DFT=T ScalE2(SS,OS)=  1.000000  1.000000
 Range of M.O.s used for correlation:     1   347
 NBasis=   352 NAE=    50 NBE=    50 NFC=     0 NFV=     0
 NROrb=    347 NOA=    50 NOB=    50 NVA=   297 NVB=   297

 **** Warning!!: The largest alpha MO coefficient is  0.24265406D+03


 **** Warning!!: The smallest alpha delta epsilon is  0.60522997D-01

          Differentiating once with respect to magnetic field using GIAOs.
          Electric field/nuclear overlap derivatives assumed to be zero.
 FoFCou: FMM=F IPFlag=           0 FMFlag=      100000 FMFlg1=        2001
         NFxFlg=           0 DoJE=F BraDBF=F KetDBF=T FulRan=T
         wScrn=  0.000000 ICntrl=    6100 IOpCl=  0 I1Cent=           7 NGrid=          75
         NMat0=    1 NMatS0=      1 NMatT0=    0 NMatD0=    1 NMtDS0=    0 NMtDT0=    0
 Symmetry not used in FoFCou.
 FoFJK:  IHMeth= 1 ICntrl=    6127 DoSepK=F KAlg= 0 I1Cent=   0 FoldK=F
 IRaf=         1 NMat=   1 IRICut=       1 DoRegI=T DoRafI=F ISym2E= 0.
          There are     3 degrees of freedom in the 1st order CPHF.  IDoFFX=0 NUNeed=     3.
      3 vectors produced by pass  0 Test12= 4.95D-13 3.33D-08 XBig12= 2.46D+03 2.19D+01.
 AX will form     3 AO Fock derivatives at one time.
      3 vectors produced by pass  1 Test12= 4.95D-13 3.33D-08 XBig12= 5.16D+00 7.77D-01.
      3 vectors produced by pass  2 Test12= 4.95D-13 3.33D-08 XBig12= 1.67D-02 3.22D-02.
      3 vectors produced by pass  3 Test12= 4.95D-13 3.33D-08 XBig12= 4.18D-05 2.09D-03.
      3 vectors produced by pass  4 Test12= 4.95D-13 3.33D-08 XBig12= 2.66D-07 2.84D-04.
      3 vectors produced by pass  5 Test12= 4.95D-13 3.33D-08 XBig12= 3.27D-09 3.42D-05.
      3 vectors produced by pass  6 Test12= 4.95D-13 3.33D-08 XBig12= 3.72D-11 1.57D-06.
      1 vectors produced by pass  7 Test12= 4.95D-13 3.33D-08 XBig12= 1.10D-13 7.88D-08.
 InvSVY:  IOpt=1 It=  1 EMax= 7.11D-15
 Solved reduced A of dimension    22 with     3 vectors.
 Calculating GIAO nuclear magnetic shielding tensors.
 SCF GIAO Magnetic shielding tensor (ppm):
      1  C    Isotropic =   195.0401   Anisotropy =    51.7709
   XX=   217.5635   YX=     2.9496   ZX=    -2.9509
   XY=    12.1187   YY=   224.8114   ZY=     2.8891
   XZ=    -2.4378   YZ=     2.2111   ZZ=   142.7453
   Eigenvalues:   142.5509   213.0153   229.5540
      2  C    Isotropic =   205.8035   Anisotropy =    34.9410
   XX=   225.6654   YX=    -1.9654   ZX=     3.3156
   XY=    -2.1400   YY=   227.8697   ZY=     2.0815
   XZ=     5.9162   YZ=     3.5702   ZZ=   163.8754
   Eigenvalues:   163.3955   224.9175   229.0975
      3  C    Isotropic =   195.1079   Anisotropy =    51.4693
   XX=   229.3985   YX=     5.0757   ZX=     0.8078
   XY=    -4.0281   YY=   213.0511   ZY=    -3.9948
   XZ=     0.7919   YZ=    -2.9027   ZZ=   142.8742
   Eigenvalues:   142.6972   213.2057   229.4208
      4  H    Isotropic =    31.7240   Anisotropy =     9.6180
   XX=    32.1366   YX=     0.8912   ZX=    -0.3608
   XY=     1.0593   YY=    37.9768   ZY=     0.6588
   XZ=     0.7341   YZ=    -0.9006   ZZ=    25.0585
   Eigenvalues:    25.0519    31.9841    38.1360
      5  C    Isotropic =   215.8446   Anisotropy =    27.7807
   XX=   231.1960   YX=    -0.0131   ZX=    -0.0055
   XY=     0.1253   YY=   234.2646   ZY=     0.9449
   XZ=     0.2616   YZ=     3.6109   ZZ=   182.0731
   Eigenvalues:   181.9736   231.1951   234.3650
      6  C    Isotropic =   209.7033   Anisotropy =    22.3931
   XX=   224.4605   YX=    -0.0072   ZX=     0.0186
   XY=    -0.1731   YY=   224.5845   ZY=     0.1122
   XZ=    -0.1679   YZ=    -0.0371   ZZ=   180.0648
   Eigenvalues:   180.0646   224.4132   224.6320
      7  C    Isotropic =   215.7212   Anisotropy =    26.4994
   XX=   232.6676   YX=    -1.0588   ZX=     0.1345
   XY=    -0.9514   YY=   231.8367   ZY=    -0.0498
   XZ=     2.5390   YZ=    -1.5486   ZZ=   182.6592
   Eigenvalues:   182.6114   231.1647   233.3875
      8  C    Isotropic =   195.1284   Anisotropy =    51.5757
   XX=   216.6610   YX=    11.3293   ZX=    -3.7786
   XY=     2.4150   YY=   225.8222   ZY=     1.0751
   XZ=    -3.1197   YZ=     0.3342   ZZ=   142.9021
   Eigenvalues:   142.7284   213.1446   229.5122
      9  C    Isotropic =   205.5021   Anisotropy =    35.1606
   XX=   228.9420   YX=     0.0032   ZX=    -0.0027
   XY=     0.0464   YY=   224.5901   ZY=    -3.9758
   XZ=    -0.2337   YZ=    -6.9892   ZZ=   162.9742
   Eigenvalues:   162.4900   225.0738   228.9425
     10  C    Isotropic =   194.7760   Anisotropy =    52.1660
   XX=   216.6876   YX=   -11.3585   ZX=     3.7883
   XY=    -2.7230   YY=   225.6872   ZY=     1.0680
   XZ=     2.9503   YZ=     0.4898   ZZ=   141.9532
   Eigenvalues:   141.7872   212.9875   229.5533
     11  C    Isotropic =   216.1731   Anisotropy =    26.1061
   XX=   232.6543   YX=     1.0608   ZX=    -0.1721
   XY=     1.3373   YY=   231.7845   ZY=    -0.0696
   XZ=    -3.3886   YZ=    -1.8820   ZZ=   184.0804
   Eigenvalues:   183.9971   230.9449   233.5771
     12  C    Isotropic =   195.1216   Anisotropy =    51.7333
   XX=   217.6036   YX=    -2.9884   ZX=     2.9637
   XY=   -12.4774   YY=   224.6181   ZY=     2.8945
   XZ=     2.6523   YZ=     2.7658   ZZ=   143.1432
   Eigenvalues:   142.9172   212.8372   229.6105
     13  C    Isotropic =   205.7820   Anisotropy =    34.9878
   XX=   225.6774   YX=     1.9502   ZX=    -3.3249
   XY=     2.4086   YY=   227.7215   ZY=     2.0928
   XZ=    -6.2388   YZ=     3.5275   ZZ=   163.9472
   Eigenvalues:   163.4417   224.7971   229.1072
     14  C    Isotropic =   195.5315   Anisotropy =    50.8417
   XX=   229.3970   YX=    -5.0366   ZX=    -0.7918
   XY=     3.9098   YY=   212.9931   ZY=    -3.9593
   XZ=    -1.2224   YZ=    -2.0974   ZZ=   144.2043
   Eigenvalues:   144.0588   213.1097   229.4259
     15  H    Isotropic =    31.7154   Anisotropy =     9.6272
   XX=    32.1415   YX=    -0.8988   ZX=     0.3588
   XY=    -1.0724   YY=    37.9714   ZY=     0.6654
   XZ=    -0.6374   YZ=    -0.7048   ZZ=    25.0332
   Eigenvalues:    25.0304    31.9822    38.1335
     16  H    Isotropic =    31.0543   Anisotropy =    11.0381
   XX=    36.6613   YX=    -3.0755   ZX=    -0.3560
   XY=    -3.0308   YY=    33.0761   ZY=     0.2416
   XZ=     0.7839   YZ=    -0.4697   ZZ=    23.4256
   Eigenvalues:    23.4217    31.3282    38.4130
     17  H    Isotropic =    31.6580   Anisotropy =     9.7000
   XX=    37.3808   YX=     1.8915   ZX=    -0.4381
   XY=     2.0878   YY=    32.7424   ZY=    -0.6290
   XZ=     0.9969   YZ=     0.9217   ZZ=    24.8508
   Eigenvalues:    24.8432    32.0061    38.1247
     18  H    Isotropic =    31.6880   Anisotropy =     9.5067
   XX=    35.5613   YX=     3.0584   ZX=    -0.7304
   XY=     2.8661   YY=    34.4649   ZY=    -0.1017
   XZ=     1.1183   YZ=    -0.2373   ZZ=    25.0377
   Eigenvalues:    25.0283    32.0099    38.0258
     19  H    Isotropic =    31.1195   Anisotropy =    10.9841
   XX=    31.3349   YX=    -0.0053   ZX=     0.0002
   XY=     0.0006   YY=    38.4388   ZY=    -0.4176
   XZ=    -0.0210   YZ=     0.8703   ZZ=    23.5848
   Eigenvalues:    23.5813    31.3349    38.4422
     20  H    Isotropic =    31.6557   Anisotropy =     9.5668
   XX=    35.5705   YX=    -3.0559   ZX=     0.7308
   XY=    -2.8686   YY=    34.4694   ZY=    -0.0807
   XZ=    -1.0978   YZ=    -0.0623   ZZ=    24.9273
   Eigenvalues:    24.9224    32.0112    38.0336
     21  H    Isotropic =    31.0407   Anisotropy =    11.0668
   XX=    36.6530   YX=     3.0793   ZX=     0.3551
   XY=     3.0438   YY=    33.0940   ZY=     0.2273
   XZ=    -0.7768   YZ=    -0.4764   ZZ=    23.3751
   Eigenvalues:    23.3711    31.3324    38.4186
     22  H    Isotropic =    31.7248   Anisotropy =     9.6002
   XX=    37.3864   YX=    -1.8791   ZX=     0.4400
   XY=    -2.1000   YY=    32.7456   ZY=    -0.6175
   XZ=    -0.6607   YZ=     1.0215   ZZ=    25.0423
   Eigenvalues:    25.0367    32.0127    38.1249
     23  H    Isotropic =    22.8672   Anisotropy =    13.4031
   XX=    18.7529   YX=     0.4199   ZX=    -2.0542
   XY=     0.4078   YY=    18.2113   ZY=    -1.1896
   XZ=    -0.3878   YZ=    -0.3971   ZZ=    31.6373
   Eigenvalues:    17.9864    18.8126    31.8026
     24  H    Isotropic =    23.0002   Anisotropy =    14.0173
   XX=    17.8948   YX=     0.0030   ZX=    -0.0029
   XY=    -0.0276   YY=    18.9653   ZY=     2.4027
   XZ=    -0.0802   YZ=     0.9049   ZZ=    32.1406
   Eigenvalues:    17.8946    18.7610    32.3451
     25  H    Isotropic =    23.3454   Anisotropy =    10.3925
   XX=    19.8931   YX=    -0.0029   ZX=     0.0001
   XY=     0.0133   YY=    19.8697   ZY=     0.0763
   XZ=     0.0071   YZ=    -0.2143   ZZ=    30.2732
   Eigenvalues:    19.8682    19.8942    30.2737
     26  H    Isotropic =    22.9115   Anisotropy =    13.5454
   XX=    18.7514   YX=    -0.4168   ZX=     2.0540
   XY=    -0.4433   YY=    18.2198   ZY=    -1.1834
   XZ=     0.5626   YZ=    -0.3635   ZZ=    31.7635
   Eigenvalues:    17.9799    18.8129    31.9418
     27  H    Isotropic =    26.4653   Anisotropy =    10.5854
   XX=    20.6482   YX=     3.4045   ZX=     5.0033
   XY=     7.0580   YY=    26.8841   ZY=    -1.9405
   XZ=     3.5180   YZ=     0.5960   ZZ=    31.8637
   Eigenvalues:    16.5965    29.2771    33.5222
     28  H    Isotropic =    25.9577   Anisotropy =    10.6081
   XX=    19.4142   YX=    -6.4650   ZX=     5.0537
   XY=    -6.4470   YY=    26.8078   ZY=     2.9568
   XZ=     3.4031   YZ=     1.9628   ZZ=    31.6512
   Eigenvalues:    14.2929    30.5505    33.0298
     29  H    Isotropic =    26.4968   Anisotropy =    10.7075
   XX=    29.8588   YX=     1.7331   ZX=     0.7483
   XY=    -1.8835   YY=    17.6655   ZY=     5.2825
   XZ=     2.4042   YZ=     2.8165   ZZ=    31.9660
   Eigenvalues:    16.5813    29.2739    33.6351
     30  H    Isotropic =    26.4132   Anisotropy =    10.4871
   XX=    20.6612   YX=    -3.4045   ZX=    -4.9979
   XY=    -7.0598   YY=    26.8466   ZY=    -1.9370
   XZ=    -3.4625   YZ=     0.6407   ZZ=    31.7316
   Eigenvalues:    16.6080    29.2269    33.4046
     31  H    Isotropic =    25.9920   Anisotropy =    10.7652
   XX=    19.3961   YX=     6.4565   ZX=    -5.0586
   XY=     6.4187   YY=    26.8353   ZY=     2.9472
   XZ=    -3.5649   YZ=     2.0775   ZZ=    31.7447
   Eigenvalues:    14.2567    30.5505    33.1688
     32  H    Isotropic =    26.5276   Anisotropy =    10.8419
   XX=    29.8633   YX=    -1.7174   ZX=    -0.7545
   XY=     1.8722   YY=    17.6595   ZY=     5.2860
   XZ=    -2.4566   YZ=     2.9337   ZZ=    32.0600
   Eigenvalues:    16.5512    29.2761    33.7555
     33  H    Isotropic =    26.4828   Anisotropy =    10.7381
   XX=    20.7217   YX=     7.1843   ZX=     4.1682
   XY=     3.4929   YY=    26.7637   ZY=    -3.3428
   XZ=     1.2659   YZ=    -3.4513   ZZ=    31.9630
   Eigenvalues:    16.5287    29.2782    33.6416
     34  H    Isotropic =    26.0795   Anisotropy =    10.7499
   XX=    30.5210   YX=     0.0080   ZX=     0.0035
   XY=     0.0205   YY=    15.7560   ZY=    -5.8502
   XZ=     0.0185   YZ=    -3.6297   ZZ=    31.9615
   Eigenvalues:    14.4714    30.5210    33.2460
     35  H    Isotropic =    26.5242   Anisotropy =    10.8666
   XX=    20.7331   YX=    -7.1911   ZX=    -4.1619
   XY=    -3.4676   YY=    26.7532   ZY=    -3.3441
   XZ=    -1.4106   YZ=    -3.5193   ZZ=    32.0863
   Eigenvalues:    16.5111    29.2930    33.7686
     36  Bq   Isotropic =    -0.5212   Anisotropy =    18.3698
   XX=    11.5000   YX=     0.3881   ZX=     0.0608
   XY=     0.3610   YY=    11.0720   ZY=     0.0281
   XZ=     0.8044   YZ=     0.6068   ZZ=   -24.1357
   Eigenvalues:   -24.1438    10.8548    11.7253
     37  Bq   Isotropic =    -0.5190   Anisotropy =    18.5705
   XX=    11.6165   YX=     0.4274   ZX=    -0.0291
   XY=     0.3963   YY=    11.1604   ZY=    -0.0337
   XZ=     0.4716   YZ=     0.3775   ZZ=   -24.3339
   Eigenvalues:   -24.3360    10.9177    11.8614
     38  Bq   Isotropic =    -0.6745   Anisotropy =    17.9526
   XX=    11.0240   YX=     0.4711   ZX=    -0.1043
   XY=     0.4338   YY=    10.5352   ZY=    -0.0889
   XZ=     0.1058   YZ=     0.1290   ZZ=   -23.5829
   Eigenvalues:   -23.5829    10.2654    11.2938
     39  Bq   Isotropic =    -0.9104   Anisotropy =    16.6311
   XX=     9.8789   YX=     0.5152   ZX=    -0.1626
   XY=     0.4695   YY=     9.3564   ZY=    -0.1356
   XZ=    -0.2703   YZ=    -0.1252   ZZ=   -21.9666
   Eigenvalues:   -21.9686     9.0603    10.1770
     40  Bq   Isotropic =    -1.1534   Anisotropy =    14.7833
   XX=     8.3745   YX=     0.5553   ZX=    -0.2063
   XY=     0.4994   YY=     7.8210   ZY=    -0.1737
   XZ=    -0.6343   YZ=    -0.3712   ZZ=   -19.6557
   Eigenvalues:   -19.6646     7.5022     8.7021
     41  Bq   Isotropic =    -1.3486   Anisotropy =    12.6136
   XX=     6.7028   YX=     0.5875   ZX=    -0.2409
   XY=     0.5204   YY=     6.1245   ZY=    -0.2047
   XZ=    -0.9672   YZ=    -0.5967   ZZ=   -16.8731
   Eigenvalues:   -16.8951     5.7889     7.0605
     42  Bq   Isotropic =    -1.4654   Anisotropy =    10.3214
   XX=     5.0264   YX=     0.6089   ZX=    -0.2725
   XY=     0.5304   YY=     4.4323   ZY=    -0.2311
   XZ=    -1.2552   YZ=    -0.7926   ZZ=   -13.8548
   Eigenvalues:   -13.8987     4.0870     5.4156
     43  Bq   Isotropic =    -1.4962   Anisotropy =     8.0794
   XX=     3.4632   YX=     0.6178   ZX=    -0.3067
   XY=     0.5289   YY=     2.8637   ZY=    -0.2553
   XZ=    -1.4913   YZ=    -0.9536   ZZ=   -10.8156
   Eigenvalues:   -10.8955     2.5167     3.8901
     44  Bq   Isotropic =    -1.4507   Anisotropy =     6.0264
   XX=     2.0847   YX=     0.6139   ZX=    -0.3471
   XY=     0.5163   YY=     1.4906   ZY=    -0.2791
   XZ=    -1.6738   YZ=    -1.0778   ZZ=    -7.9273
   Eigenvalues:    -8.0685     1.1495     2.5669
     45  Bq   Isotropic =    -1.3475   Anisotropy =     4.2827
   XX=     0.9224   YX=     0.5984   ZX=    -0.3950
   XY=     0.4942   YY=     0.3437   ZY=    -0.3035
   XZ=    -1.8056   YZ=    -1.1667   ZZ=    -5.3084
   Eigenvalues:    -5.5654     0.0154     1.5077
     46  Bq   Isotropic =    -1.2079   Anisotropy =     3.0184
   XX=    -0.0213   YX=     0.5731   ZX=    -0.4498
   XY=     0.4649   YY=    -0.5762   ZY=    -0.3292
   XZ=    -1.8923   YZ=    -1.2237   ZZ=    -3.0260
   Eigenvalues:    -3.5418    -0.8862     0.8044
     47  Bq   Isotropic =    -1.0512   Anisotropy =     2.6421
   XX=    -0.7624   YX=     0.5406   ZX=    -0.5093
   XY=     0.4309   YY=    -1.2870   ZY=    -0.3557
   XZ=    -1.9409   YZ=    -1.2535   ZZ=    -1.1041
   Eigenvalues:    -2.2897    -1.5740     0.7103
     48  Bq   Isotropic =    -0.8924   Anisotropy =     3.4271
   XX=    -1.3259   YX=     0.5035   ZX=    -0.5709
   XY=     0.3943   YY=    -1.8162   ZY=    -0.3824
   XZ=    -1.9586   YZ=    -1.2612   ZZ=     0.4650
   Eigenvalues:    -2.0930    -1.9765     1.3924
     49  Bq   Isotropic =    -0.7416   Anisotropy =     4.6016
   XX=    -1.7404   YX=     0.4642   ZX=    -0.6318
   XY=     0.3574   YY=    -2.1941   ZY=    -0.4086
   XZ=    -1.9521   YZ=    -1.2517   ZZ=     1.7096
   Eigenvalues:    -2.4386    -2.1124     2.3261
     50  Bq   Isotropic =    -0.6049   Anisotropy =     5.6358
   XX=    -2.0333   YX=     0.4247   ZX=    -0.6895
   XY=     0.3216   YY=    -2.4500   ZY=    -0.4334
   XZ=    -1.9272   YZ=    -1.2292   ZZ=     2.6685
   Eigenvalues:    -2.6703    -2.2968     3.1522
     51  Bq   Isotropic =    -0.4850   Anisotropy =     6.4251
   XX=    -2.2294   YX=     0.3865   ZX=    -0.7421
   XY=     0.2882   YY=    -2.6101   ZY=    -0.4561
   XZ=    -1.8887   YZ=    -1.1976   ZZ=     3.3845
   Eigenvalues:    -2.8079    -2.4455     3.7984
     52  Bq   Isotropic =    -0.3823   Anisotropy =     6.9800
   XX=    -2.3497   YX=     0.3506   ZX=    -0.7882
   XY=     0.2578   YY=    -2.6964   ZY=    -0.4761
   XZ=    -1.8403   YZ=    -1.1596   ZZ=     3.8993
   Eigenvalues:    -2.8738    -2.5441     4.2711
     53  Bq   Isotropic =    -0.2960   Anisotropy =     7.3363
   XX=    -2.4119   YX=     0.3178   ZX=    -0.8271
   XY=     0.2309   YY=    -2.7271   ZY=    -0.4931
   XZ=    -1.7850   YZ=    -1.1176   ZZ=     4.2511
   Eigenvalues:    -2.8864    -2.5964     4.5949
     54  Bq   Isotropic =    -0.2245   Anisotropy =     7.5324
   XX=    -2.4301   YX=     0.2883   ZX=    -0.8583
   XY=     0.2075   YY=    -2.7169   ZY=    -0.5067
   XZ=    -1.7252   YZ=    -1.0734   ZZ=     4.4734
   Eigenvalues:    -2.8603    -2.6103     4.7970
     55  Bq   Isotropic =    -0.1662   Anisotropy =     7.6031
   XX=    -2.4158   YX=     0.2622   ZX=    -0.8820
   XY=     0.1876   YY=    -2.6771   ZY=    -0.5170
   XZ=    -1.6625   YZ=    -1.0281   ZZ=     4.5944
   Eigenvalues:    -2.8069    -2.5941     4.9026
     56  Bq   Isotropic =    -0.1190   Anisotropy =     7.5779
   XX=    -2.3778   YX=     0.2394   ZX=    -0.8983
   XY=     0.1709   YY=    -2.6166   ZY=    -0.5239
   XZ=    -1.5983   YZ=    -0.9828   ZZ=     4.6374
   Eigenvalues:    -2.7349    -2.5551     4.9329
     57  Bq   Isotropic =    -0.0814   Anisotropy =     7.4811
   XX=    -2.3231   YX=     0.2195   ZX=    -0.9079
   XY=     0.1571   YY=    -2.5423   ZY=    -0.5276
   XZ=    -1.5337   YZ=    -0.9382   ZZ=     4.6212
   Eigenvalues:    -2.6509    -2.4993     4.9060
     58  Bq   Isotropic =    -0.0518   Anisotropy =     7.3319
   XX=    -2.2572   YX=     0.2023   ZX=    -0.9113
   XY=     0.1457   YY=    -2.4593   ZY=    -0.5283
   XZ=    -1.4695   YZ=    -0.8946   ZZ=     4.5612
   Eigenvalues:    -2.5597    -2.4318     4.8362
     59  Bq   Isotropic =    -0.0288   Anisotropy =     7.1457
   XX=    -2.1841   YX=     0.1874   ZX=    -0.9092
   XY=     0.1363   YY=    -2.3713   ZY=    -0.5263
   XZ=    -1.4061   YZ=    -0.8524   ZZ=     4.4691
   Eigenvalues:    -2.4648    -2.3565     4.7350
     60  Bq   Isotropic =    -0.0112   Anisotropy =     6.9343
   XX=    -2.1068   YX=     0.1744   ZX=    -0.9024
   XY=     0.1285   YY=    -2.2811   ZY=    -0.5218
   XZ=    -1.3442   YZ=    -0.8118   ZZ=     4.3544
   Eigenvalues:    -2.3688    -2.2764     4.6117
     61  Bq   Isotropic =     0.0019   Anisotropy =     6.7069
   XX=    -2.0278   YX=     0.1630   ZX=    -0.8914
   XY=     0.1220   YY=    -2.1907   ZY=    -0.5152
   XZ=    -1.2838   YZ=    -0.7728   ZZ=     4.2243
   Eigenvalues:    -2.2735    -2.1940     4.4732
     62  Bq   Isotropic =     0.0114   Anisotropy =     6.4704
   XX=    -1.9486   YX=     0.1529   ZX=    -0.8769
   XY=     0.1164   YY=    -2.1015   ZY=    -0.5067
   XZ=    -1.2254   YZ=    -0.7356   ZZ=     4.0844
   Eigenvalues:    -2.1799    -2.1108     4.3251
     63  Bq   Isotropic =     0.0181   Anisotropy =     6.2300
   XX=    -1.8705   YX=     0.1438   ZX=    -0.8595
   XY=     0.1115   YY=    -2.0143   ZY=    -0.4966
   XZ=    -1.1690   YZ=    -0.7001   ZZ=     3.9390
   Eigenvalues:    -2.0889    -2.0283     4.1714
     64  Bq   Isotropic =     0.0224   Anisotropy =     5.9896
   XX=    -1.7942   YX=     0.1355   ZX=    -0.8398
   XY=     0.1070   YY=    -1.9298   ZY=    -0.4852
   XZ=    -1.1148   YZ=    -0.6662   ZZ=     3.7913
   Eigenvalues:    -2.0009    -1.9473     4.0155
     65  Bq   Isotropic =     0.0250   Anisotropy =     5.7520
   XX=    -1.7202   YX=     0.1279   ZX=    -0.8183
   XY=     0.1028   YY=    -1.8483   ZY=    -0.4728
   XZ=    -1.0626   YZ=    -0.6340   ZZ=     3.6437
   Eigenvalues:    -1.9162    -1.8684     3.8597
     66  Bq   Isotropic =     0.0262   Anisotropy =     5.5191
   XX=    -1.6489   YX=     0.1208   ZX=    -0.7953
   XY=     0.0987   YY=    -1.7701   ZY=    -0.4595
   XZ=    -1.0126   YZ=    -0.6033   ZZ=     3.4978
   Eigenvalues:    -1.8349    -1.7920     3.7056
     67  Bq   Isotropic =     0.0264   Anisotropy =     5.2924
   XX=    -1.5805   YX=     0.1142   ZX=    -0.7712
   XY=     0.0948   YY=    -1.6951   ZY=    -0.4457
   XZ=    -0.9648   YZ=    -0.5741   ZZ=     3.3549
   Eigenvalues:    -1.7570    -1.7184     3.5547
     68  Bq   Isotropic =     0.0259   Anisotropy =     5.0728
   XX=    -1.5149   YX=     0.1079   ZX=    -0.7465
   XY=     0.0909   YY=    -1.6235   ZY=    -0.4314
   XZ=    -0.9190   YZ=    -0.5463   ZZ=     3.2160
   Eigenvalues:    -1.6825    -1.6476     3.4077
     69  Bq   Isotropic =     0.0248   Anisotropy =     4.8608
   XX=    -1.4523   YX=     0.1020   ZX=    -0.7213
   XY=     0.0871   YY=    -1.5550   ZY=    -0.4168
   XZ=    -0.8753   YZ=    -0.5198   ZZ=     3.0816
   Eigenvalues:    -1.6113    -1.5797     3.2653
     70  Bq   Isotropic =     0.0233   Anisotropy =     4.6569
   XX=    -1.3924   YX=     0.0964   ZX=    -0.6959
   XY=     0.0833   YY=    -1.4897   ZY=    -0.4021
   XZ=    -0.8335   YZ=    -0.4947   ZZ=     2.9520
   Eigenvalues:    -1.5433    -1.5148     3.1279
     71  Bq   Isotropic =     0.0216   Anisotropy =     4.4612
   XX=    -1.3354   YX=     0.0911   ZX=    -0.6705
   XY=     0.0796   YY=    -1.4274   ZY=    -0.3874
   XZ=    -0.7937   YZ=    -0.4708   ZZ=     2.8274
   Eigenvalues:    -1.4784    -1.4526     2.9957
     72  Bq   Isotropic =     0.0197   Anisotropy =     4.2736
   XX=    -1.2809   YX=     0.0860   ZX=    -0.6453
   XY=     0.0759   YY=    -1.3680   ZY=    -0.3728
   XZ=    -0.7557   YZ=    -0.4480   ZZ=     2.7081
   Eigenvalues:    -1.4165    -1.3932     2.8688
     73  Bq   Isotropic =     0.0178   Anisotropy =     4.0941
   XX=    -1.2291   YX=     0.0812   ZX=    -0.6204
   XY=     0.0723   YY=    -1.3114   ZY=    -0.3584
   XZ=    -0.7195   YZ=    -0.4264   ZZ=     2.5938
   Eigenvalues:    -1.3575    -1.3364     2.7472
     74  Bq   Isotropic =     0.0158   Anisotropy =     3.9226
   XX=    -1.1796   YX=     0.0767   ZX=    -0.5959
   XY=     0.0688   YY=    -1.2575   ZY=    -0.3442
   XZ=    -0.6850   YZ=    -0.4059   ZZ=     2.4847
   Eigenvalues:    -1.3012    -1.2822     2.6309
     75  Bq   Isotropic =     0.0139   Anisotropy =     3.7587
   XX=    -1.1325   YX=     0.0724   ZX=    -0.5720
   XY=     0.0654   YY=    -1.2061   ZY=    -0.3304
   XZ=    -0.6522   YZ=    -0.3864   ZZ=     2.3804
   Eigenvalues:    -1.2475    -1.2304     2.5198
 End of Minotr F.D. properties file   721 does not exist.
 End of Minotr F.D. properties file   722 does not exist.
 End of Minotr F.D. properties file   788 does not exist.

 **********************************************************************

            Population analysis using the SCF density.

 **********************************************************************

 Alpha  occ. eigenvalues --  -10.13119 -10.13119 -10.13117 -10.13114 -10.13114
 Alpha  occ. eigenvalues --  -10.13112 -10.12927 -10.12918 -10.12917 -10.12916
 Alpha  occ. eigenvalues --  -10.12817 -10.12817 -10.12802  -0.96121  -0.89756
 Alpha  occ. eigenvalues --   -0.89754  -0.82166  -0.82166  -0.81857  -0.73253
 Alpha  occ. eigenvalues --   -0.66961  -0.66151  -0.66151  -0.56710  -0.55992
 Alpha  occ. eigenvalues --   -0.55991  -0.52531  -0.52531  -0.49053  -0.49051
 Alpha  occ. eigenvalues --   -0.47938  -0.43265  -0.43049  -0.43047  -0.42649
 Alpha  occ. eigenvalues --   -0.42648  -0.42632  -0.42223  -0.38553  -0.38550
 Alpha  occ. eigenvalues --   -0.37314  -0.33710  -0.32473  -0.32471  -0.27152
 Alpha  occ. eigenvalues --   -0.26279  -0.26279  -0.18687  -0.18685  -0.12105
 Alpha virt. eigenvalues --   -0.06052  -0.00858  -0.00856   0.00628   0.02535
 Alpha virt. eigenvalues --    0.02536   0.02887   0.02888   0.03740   0.05269
 Alpha virt. eigenvalues --    0.05310   0.06404   0.06405   0.07131   0.07133
 Alpha virt. eigenvalues --    0.07415   0.08434   0.08437   0.10699   0.10700
 Alpha virt. eigenvalues --    0.11029   0.11941   0.12075   0.13166   0.13168
 Alpha virt. eigenvalues --    0.14451   0.14451   0.14913   0.15866   0.15989
 Alpha virt. eigenvalues --    0.17101   0.17129   0.17130   0.17557   0.17560
 Alpha virt. eigenvalues --    0.17913   0.18504   0.18510   0.19231   0.19238
 Alpha virt. eigenvalues --    0.19431   0.19622   0.21564   0.21565   0.21645
 Alpha virt. eigenvalues --    0.22024   0.22024   0.23038   0.23806   0.23813
 Alpha virt. eigenvalues --    0.24366   0.24368   0.25155   0.25719   0.25719
 Alpha virt. eigenvalues --    0.26496   0.27173   0.27177   0.29082   0.29086
 Alpha virt. eigenvalues --    0.29866   0.30523   0.30540   0.31331   0.31631
 Alpha virt. eigenvalues --    0.31632   0.31647   0.33826   0.34597   0.34602
 Alpha virt. eigenvalues --    0.34791   0.35213   0.35214   0.37691   0.39361
 Alpha virt. eigenvalues --    0.39375   0.39482   0.40324   0.40329   0.41753
 Alpha virt. eigenvalues --    0.41787   0.44179   0.44180   0.46106   0.46719
 Alpha virt. eigenvalues --    0.47125   0.47127   0.47993   0.50810   0.50810
 Alpha virt. eigenvalues --    0.53288   0.53833   0.53838   0.54341   0.57369
 Alpha virt. eigenvalues --    0.57374   0.62590   0.63811   0.63813   0.66463
 Alpha virt. eigenvalues --    0.67361   0.67364   0.68129   0.68838   0.68840
 Alpha virt. eigenvalues --    0.70399   0.70401   0.70701   0.71545   0.73033
 Alpha virt. eigenvalues --    0.73035   0.74431   0.74434   0.75579   0.75952
 Alpha virt. eigenvalues --    0.77540   0.77544   0.77562   0.78346   0.78348
 Alpha virt. eigenvalues --    0.78701   0.79699   0.80611   0.81981   0.81990
 Alpha virt. eigenvalues --    0.83368   0.83369   0.84490   0.85050   0.87175
 Alpha virt. eigenvalues --    0.87176   0.87596   0.87598   0.90483   0.90486
 Alpha virt. eigenvalues --    0.91017   0.93899   0.93901   0.96595   0.96597
 Alpha virt. eigenvalues --    0.96819   0.98350   0.99594   1.00504   1.00507
 Alpha virt. eigenvalues --    1.05790   1.08152   1.08157   1.08432   1.10244
 Alpha virt. eigenvalues --    1.11219   1.11223   1.14921   1.14925   1.15652
 Alpha virt. eigenvalues --    1.17971   1.17976   1.24156   1.24159   1.24235
 Alpha virt. eigenvalues --    1.26197   1.30728   1.30731   1.38195   1.38197
 Alpha virt. eigenvalues --    1.40480   1.41510   1.41514   1.42034   1.48712
 Alpha virt. eigenvalues --    1.48716   1.49112   1.50261   1.50263   1.51802
 Alpha virt. eigenvalues --    1.56212   1.56220   1.57658   1.60632   1.60634
 Alpha virt. eigenvalues --    1.60927   1.67481   1.67483   1.72673   1.75931
 Alpha virt. eigenvalues --    1.79465   1.79465   1.79479   1.79821   1.83439
 Alpha virt. eigenvalues --    1.83441   1.86672   1.87253   1.87257   1.89924
 Alpha virt. eigenvalues --    1.89927   1.93160   1.94395   1.94404   1.98386
 Alpha virt. eigenvalues --    2.02181   2.03468   2.03473   2.05195   2.05199
 Alpha virt. eigenvalues --    2.05865   2.05868   2.13289   2.14320   2.18095
 Alpha virt. eigenvalues --    2.31810   2.31812   2.33302   2.33306   2.35884
 Alpha virt. eigenvalues --    2.36059   2.36061   2.42481   2.45510   2.45521
 Alpha virt. eigenvalues --    2.48420   2.48425   2.51747   2.52522   2.59474
 Alpha virt. eigenvalues --    2.62737   2.62738   2.68259   2.68718   2.68721
 Alpha virt. eigenvalues --    2.72106   2.73624   2.73630   2.78687   2.80043
 Alpha virt. eigenvalues --    2.80047   2.85194   2.87667   2.87672   2.89523
 Alpha virt. eigenvalues --    2.94554   2.94556   2.98848   2.98855   3.09032
 Alpha virt. eigenvalues --    3.16327   3.16329   3.21768   3.21780   3.22292
 Alpha virt. eigenvalues --    3.28115   3.29260   3.31850   3.31852   3.34362
 Alpha virt. eigenvalues --    3.37128   3.37131   3.37173   3.40061   3.40067
 Alpha virt. eigenvalues --    3.41234   3.50130   3.50140   3.52857   3.62433
 Alpha virt. eigenvalues --    3.62433   3.70571   3.70578   3.72205   3.77483
 Alpha virt. eigenvalues --    3.78179   3.78186   3.90005   3.95349   4.01179
 Alpha virt. eigenvalues --    4.01184   4.07467   4.07471   4.29062   4.29072
 Alpha virt. eigenvalues --    4.38286   4.70626   4.78401   4.78408  23.34158
 Alpha virt. eigenvalues --   23.80877  23.80898  24.08573  24.08576  24.11264
 Alpha virt. eigenvalues --   24.12969  24.17320  24.17326  24.19197  24.21200
 Alpha virt. eigenvalues --   24.22937  24.22943
     Molecular Orbital Coefficients:
                           1         2         3         4         5
                           O         O         O         O         O
     Eigenvalues --   -10.13119 -10.13119 -10.13117 -10.13114 -10.13114
   1 1   C  1S          0.35711  -0.14112   0.19353   0.26948  -0.13342
   2        2S          0.29397  -0.11613   0.15944   0.22169  -0.10978
   3        2PX        -0.00013   0.00010  -0.00001  -0.00008   0.00005
   4        2PY        -0.00012   0.00026  -0.00001   0.00011  -0.00018
   5        2PZ        -0.00026   0.00012  -0.00013  -0.00017   0.00008
   6        3S          0.01452  -0.00625   0.00677   0.01150  -0.00533
   7        3PX         0.00158  -0.00093   0.00040   0.00118  -0.00066
   8        3PY        -0.00011  -0.00121  -0.00036  -0.00138   0.00138
   9        3PZ        -0.00008  -0.00003  -0.00013  -0.00016   0.00011
  10        4S         -0.04000   0.02931  -0.00776  -0.02508   0.00166
  11        4PX        -0.01302   0.01178  -0.00183  -0.00611  -0.00134
  12        4PY         0.00417  -0.00258   0.00346   0.00085   0.00139
  13        4PZ         0.00421  -0.00207   0.00108   0.00388  -0.00049
  14        5S         -0.00167   0.01959   0.03554  -0.03738   0.01279
  15        5PX         0.00121   0.00784   0.00482  -0.00909   0.00470
  16        5PY         0.00629   0.00642   0.00289  -0.00308   0.00298
  17        5PZ        -0.00004  -0.00091  -0.00152   0.00110  -0.00012
  18        6D 0       -0.00046   0.00014  -0.00024  -0.00051   0.00031
  19        6D+1        0.00001   0.00003   0.00002   0.00002   0.00002
  20        6D-1       -0.00004  -0.00001  -0.00005  -0.00003   0.00005
  21        6D+2        0.00006  -0.00039  -0.00008  -0.00067   0.00054
  22        6D-2        0.00058  -0.00065   0.00005   0.00041   0.00003
  23 2   C  1S          0.07874  -0.04612   0.04465   0.00137   0.01876
  24        2S          0.06504  -0.03808   0.03696   0.00110   0.01546
  25        2PX         0.00004  -0.00018   0.00013  -0.00037   0.00026
  26        2PY         0.00028   0.00012   0.00013   0.00057  -0.00044
  27        2PZ         0.00003  -0.00001   0.00001  -0.00001  -0.00001
  28        3S          0.00204  -0.00123   0.00081   0.00023   0.00070
  29        3PX         0.00053   0.00047  -0.00044   0.00162  -0.00086
  30        3PY        -0.00093  -0.00093  -0.00043  -0.00234   0.00196
  31        3PZ        -0.00029   0.00017  -0.00015   0.00003  -0.00003
  32        4S          0.02188  -0.01344   0.00651   0.00279   0.00745
  33        4PX         0.01076  -0.00692   0.00318  -0.00128   0.00357
  34        4PY         0.00703  -0.00367   0.00213   0.00293  -0.00065
  35        4PZ        -0.00100   0.00065  -0.00014  -0.00049  -0.00078
  36        5S          0.00754  -0.00642  -0.01856  -0.00047  -0.00150
  37        5PX         0.00013  -0.00538  -0.00300   0.00169  -0.00232
  38        5PY         0.00504   0.00528  -0.00290  -0.00368   0.00296
  39        5PZ        -0.00023   0.00025   0.00089  -0.00048  -0.00054
  40        6D 0        0.00042  -0.00024   0.00033  -0.00001   0.00008
  41        6D+1       -0.00008   0.00006   0.00000   0.00002  -0.00005
  42        6D-1       -0.00007   0.00002   0.00000  -0.00006   0.00003
  43        6D+2        0.00072   0.00027   0.00030   0.00143  -0.00101
  44        6D-2        0.00016  -0.00047   0.00032  -0.00082   0.00073
  45 3   C  1S          0.23502  -0.20403   0.15294  -0.26427   0.26612
  46        2S          0.19346  -0.16796   0.12605  -0.21747   0.21896
  47        2PX        -0.00033   0.00005  -0.00001  -0.00010  -0.00001
  48        2PY         0.00004   0.00004   0.00001   0.00016  -0.00008
  49        2PZ        -0.00019   0.00015  -0.00010   0.00017  -0.00017
  50        3S          0.00984  -0.00820   0.00502  -0.01069   0.01127
  51        3PX         0.00178  -0.00009  -0.00012   0.00084  -0.00021
  52        3PY         0.00046  -0.00090   0.00028  -0.00187   0.00144
  53        3PZ         0.00002   0.00005  -0.00011   0.00016  -0.00014
  54        4S         -0.03907   0.02038  -0.00347   0.01453  -0.02793
  55        4PX        -0.00386   0.00111   0.00264   0.00135  -0.00225
  56        4PY        -0.01523   0.00635  -0.00216   0.00202  -0.00764
  57        4PZ         0.00299  -0.00243   0.00059  -0.00213   0.00395
  58        5S         -0.00236  -0.00934   0.04376   0.02270  -0.02326
  59        5PX        -0.00379  -0.00972   0.00783   0.00567  -0.00515
  60        5PY        -0.00184  -0.00042   0.00411   0.00468  -0.00452
  61        5PZ         0.00052   0.00027  -0.00175  -0.00022   0.00095
  62        6D 0       -0.00023   0.00026  -0.00016   0.00051  -0.00046
  63        6D+1       -0.00002   0.00002  -0.00002   0.00006  -0.00001
  64        6D-1       -0.00002  -0.00003   0.00004  -0.00002   0.00003
  65        6D+2        0.00040  -0.00018  -0.00003  -0.00049   0.00064
  66        6D-2        0.00083  -0.00009  -0.00002   0.00049  -0.00016
  67 4   H  1S          0.00012  -0.00005  -0.00001  -0.00009   0.00012
  68        2S         -0.00064   0.00003  -0.00063  -0.00042   0.00051
  69        3S         -0.00224   0.00015   0.00067  -0.00094  -0.00045
  70 5   C  1S         -0.00005  -0.02928   0.02984  -0.04049   0.00824
  71        2S          0.00000  -0.02418   0.02482  -0.03329   0.00680
  72        2PX        -0.00081   0.00002   0.00019   0.00005  -0.00044
  73        2PY         0.00003   0.00044  -0.00018   0.00042  -0.00006
  74        2PZ         0.00001   0.00001   0.00004   0.00001   0.00000
  75        3S         -0.00034  -0.00098  -0.00015  -0.00312   0.00042
  76        3PX         0.00375  -0.00012  -0.00079  -0.00026   0.00152
  77        3PY        -0.00019  -0.00208   0.00037  -0.00179   0.00022
  78        3PZ        -0.00003   0.00000  -0.00020  -0.00002  -0.00002
  79        4S          0.00189  -0.01955   0.01049   0.01175  -0.00149
  80        4PX        -0.02971   0.00128   0.00687   0.00119  -0.01759
  81        4PY         0.00183   0.00164   0.00481   0.01157  -0.00116
  82        4PZ        -0.00007   0.00100   0.00035  -0.00191   0.00038
  83        5S         -0.00565   0.02245  -0.02505  -0.02989   0.00275
  84        5PX        -0.00231  -0.00466   0.00414   0.00630  -0.02027
  85        5PY         0.00379  -0.01699   0.02698   0.00272   0.00185
  86        5PZ         0.00087  -0.00197   0.00608  -0.00009   0.00061
  87        6D 0        0.00002  -0.00032   0.00039  -0.00034   0.00008
  88        6D+1        0.00014   0.00000  -0.00004  -0.00001   0.00009
  89        6D-1        0.00000  -0.00002   0.00004  -0.00003   0.00001
  90        6D+2        0.00002   0.00086  -0.00057   0.00076  -0.00014
  91        6D-2       -0.00144   0.00005   0.00038   0.00005  -0.00118
  92 6   C  1S          0.00061  -0.00003   0.00389  -0.00005   0.00045
  93        2S          0.00054  -0.00003   0.00345  -0.00005   0.00040
  94        2PX        -0.00036   0.00001   0.00004   0.00006   0.00019
  95        2PY         0.00003   0.00036   0.00000   0.00021  -0.00002
  96        2PZ         0.00000   0.00000  -0.00003   0.00000   0.00000
  97        3S         -0.00021   0.00001  -0.00134   0.00002  -0.00015
  98        3PX         0.00215  -0.00004  -0.00021  -0.00037  -0.00116
  99        3PY        -0.00020  -0.00212  -0.00002  -0.00127   0.00010
 100        3PZ         0.00001   0.00000   0.00006   0.00000   0.00001
 101        4S         -0.00201   0.00012  -0.01277   0.00018  -0.00146
 102        4PX         0.01015  -0.00130  -0.00374   0.00204   0.01922
 103        4PY         0.00123  -0.01127   0.00029   0.01864  -0.00329
 104        4PZ        -0.00038   0.00002  -0.00246   0.00003  -0.00028
 105        5S         -0.01656   0.00102  -0.10610   0.00148  -0.01210
 106        5PX         0.00337  -0.00058  -0.00167   0.00123   0.01009
 107        5PY         0.00073  -0.00392   0.00015   0.00988  -0.00166
 108        5PZ        -0.00153   0.00009  -0.00972   0.00013  -0.00111
 109        6D 0        0.00002   0.00000   0.00011   0.00000   0.00001
 110        6D+1        0.00006   0.00000  -0.00001  -0.00001  -0.00003
 111        6D-1       -0.00001  -0.00006   0.00000  -0.00003   0.00000
 112        6D+2       -0.00010  -0.00047  -0.00001  -0.00090   0.00012
 113        6D-2        0.00051   0.00002   0.00002  -0.00018  -0.00087
 114 7   C  1S          0.03367   0.01463   0.03025   0.01213  -0.03236
 115        2S          0.02782   0.01207   0.02515   0.00996  -0.02656
 116        2PX        -0.00060   0.00021  -0.00011  -0.00029   0.00023
 117        2PY        -0.00014   0.00079   0.00015  -0.00027  -0.00028
 118        2PZ         0.00000  -0.00001   0.00004   0.00000   0.00001
 119        3S          0.00112   0.00057   0.00006   0.00107  -0.00289
 120        3PX         0.00270  -0.00091   0.00007   0.00103  -0.00110
 121        3PY         0.00061  -0.00362  -0.00043   0.00080   0.00108
 122        3PZ        -0.00003   0.00000  -0.00020   0.00001  -0.00004
 123        4S          0.01756   0.00845   0.00640  -0.00580   0.01367
 124        4PX        -0.00919   0.01331   0.00470  -0.01100   0.00726
 125        4PY        -0.01238   0.02560   0.00064  -0.01073  -0.01015
 126        4PZ        -0.00065  -0.00040   0.00070   0.00075  -0.00182
 127        5S         -0.02057  -0.00891  -0.01847   0.01286  -0.03276
 128        5PX         0.01355   0.01164   0.02087  -0.01512   0.00376
 129        5PY        -0.01363   0.00544  -0.01240  -0.02092  -0.00768
 130        5PZ         0.00263   0.00083   0.00581  -0.00021   0.00081
 131        6D 0        0.00037   0.00016   0.00038   0.00009  -0.00025
 132        6D+1        0.00006  -0.00006   0.00003   0.00005   0.00000
 133        6D-1        0.00005  -0.00013  -0.00003   0.00007   0.00003
 134        6D+2       -0.00022   0.00146   0.00040  -0.00081  -0.00060
 135        6D-2       -0.00117   0.00036  -0.00039  -0.00070   0.00032
 136 8   C  1S          0.10046   0.33747   0.24133  -0.12072  -0.26173
 137        2S          0.08274   0.27776   0.19878  -0.09930  -0.21533
 138        2PX        -0.00011   0.00013   0.00003  -0.00001   0.00021
 139        2PY        -0.00007   0.00026   0.00006  -0.00004   0.00003
 140        2PZ        -0.00006  -0.00026  -0.00016   0.00008   0.00016
 141        3S          0.00357   0.01416   0.00882  -0.00544  -0.01091
 142        3PX         0.00098   0.00029   0.00051  -0.00038  -0.00223
 143        3PY         0.00038  -0.00183  -0.00047   0.00035   0.00012
 144        3PZ        -0.00008  -0.00003  -0.00013   0.00005   0.00018
 145        4S          0.00079  -0.04740  -0.01542   0.01887   0.01662
 146        4PX         0.00057  -0.01217  -0.00590   0.00422   0.00091
 147        4PY        -0.00206   0.01240   0.00194  -0.00425  -0.00266
 148        4PZ         0.00071   0.00434   0.00177  -0.00275  -0.00274
 149        5S          0.01679  -0.01819   0.03528   0.02502   0.02423
 150        5PX        -0.00426  -0.00306   0.00010   0.00226   0.00027
 151        5PY        -0.01103   0.00309  -0.00469  -0.00355  -0.00891
 152        5PZ        -0.00092   0.00067  -0.00132  -0.00080  -0.00083
 153        6D 0       -0.00016  -0.00041  -0.00030   0.00019   0.00055
 154        6D+1        0.00004   0.00001   0.00005  -0.00001  -0.00004
 155        6D-1       -0.00001   0.00002   0.00001   0.00004  -0.00003
 156        6D+2        0.00031  -0.00086  -0.00016   0.00022  -0.00021
 157        6D-2        0.00013   0.00016   0.00012  -0.00030  -0.00081
 158 9   C  1S          0.01135   0.08334   0.05714  -0.01359   0.01242
 159        2S          0.00939   0.06882   0.04727  -0.01117   0.01026
 160        2PX        -0.00027  -0.00005  -0.00004   0.00019   0.00079
 161        2PY        -0.00004  -0.00017  -0.00020  -0.00003  -0.00003
 162        2PZ         0.00000   0.00003   0.00002   0.00001   0.00000
 163        3S          0.00022   0.00222   0.00116  -0.00065   0.00034
 164        3PX         0.00140   0.00020   0.00012  -0.00082  -0.00335
 165        3PY         0.00012  -0.00010   0.00056   0.00036   0.00000
 166        3PZ        -0.00004  -0.00031  -0.00019   0.00000  -0.00004
 167        4S          0.00201   0.02421   0.01035  -0.00737   0.00334
 168        4PX        -0.00060  -0.00032  -0.00025   0.00092   0.00359
 169        4PY        -0.00134  -0.01423  -0.00594   0.00232  -0.00164
 170        4PZ        -0.00002  -0.00113  -0.00035   0.00091  -0.00022
 171        5S         -0.00213   0.01237  -0.01685   0.00003  -0.00137
 172        5PX        -0.00854   0.00037   0.00203   0.00026  -0.00567
 173        5PY         0.00036  -0.00386   0.00353  -0.00031   0.00027
 174        5PZ         0.00017  -0.00043   0.00077   0.00077  -0.00005
 175        6D 0        0.00008   0.00043   0.00040  -0.00004   0.00007
 176        6D+1        0.00002   0.00001   0.00000  -0.00002  -0.00007
 177        6D-1        0.00000   0.00012   0.00002  -0.00003   0.00001
 178        6D+2       -0.00009  -0.00050  -0.00049   0.00008  -0.00009
 179        6D-2       -0.00066  -0.00013  -0.00009   0.00047   0.00193
 180 10  C  1S         -0.01253   0.28674   0.19784   0.02851   0.35280
 181        2S         -0.01031   0.23603   0.16300   0.02349   0.29031
 182        2PX        -0.00012  -0.00015  -0.00004   0.00011   0.00018
 183        2PY         0.00010   0.00025   0.00004  -0.00005   0.00002
 184        2PZ         0.00000  -0.00022  -0.00013  -0.00002  -0.00023
 185        3S         -0.00038   0.01199   0.00691   0.00074   0.01456
 186        3PX         0.00080  -0.00001  -0.00032  -0.00072  -0.00228
 187        3PY        -0.00060  -0.00172  -0.00026   0.00027  -0.00046
 188        3PZ         0.00004   0.00000  -0.00011  -0.00004  -0.00021
 189        4S         -0.00623  -0.04244  -0.01007   0.00840  -0.02760
 190        4PX         0.00264   0.01135   0.00493  -0.00299   0.00426
 191        4PY         0.00284   0.01131   0.00045  -0.00263   0.00503
 192        4PZ        -0.00022   0.00369   0.00126  -0.00100   0.00400
 193        5S         -0.00381  -0.00133   0.03984  -0.00262  -0.02007
 194        5PX        -0.00399   0.00213   0.00139   0.00060   0.00089
 195        5PY         0.00867  -0.00037  -0.00918   0.00037   0.00796
 196        5PZ         0.00037   0.00050  -0.00169  -0.00060   0.00076
 197        6D 0        0.00006  -0.00031  -0.00021  -0.00009  -0.00065
 198        6D+1        0.00003  -0.00001  -0.00005  -0.00002  -0.00006
 199        6D-1        0.00002   0.00002  -0.00001   0.00003   0.00002
 200        6D+2       -0.00037  -0.00083  -0.00008   0.00030   0.00003
 201        6D-2        0.00012  -0.00002   0.00000  -0.00010  -0.00086
 202 11  C  1S         -0.01932   0.01387   0.03126   0.02718   0.03460
 203        2S         -0.01593   0.01146   0.02601   0.02234   0.02847
 204        2PX        -0.00050  -0.00015   0.00023   0.00040   0.00015
 205        2PY         0.00019   0.00070   0.00003  -0.00011   0.00042
 206        2PZ         0.00002  -0.00001   0.00004  -0.00001   0.00000
 207        3S         -0.00083   0.00041  -0.00022   0.00206   0.00244
 208        3PX         0.00242   0.00068  -0.00065  -0.00161  -0.00070
 209        3PY        -0.00087  -0.00327   0.00006   0.00024  -0.00159
 210        3PZ        -0.00003   0.00000  -0.00020   0.00001  -0.00001
 211        4S         -0.01458   0.01082   0.01396  -0.00638  -0.00869
 212        4PX        -0.00938  -0.01220  -0.00294   0.01279   0.00163
 213        4PY         0.01203   0.02210  -0.00561  -0.00696   0.01442
 214        4PZ         0.00089  -0.00061   0.00008   0.00114   0.00157
 215        5S          0.01470  -0.01282  -0.03016   0.01806   0.02163
 216        5PX         0.00712  -0.00677  -0.02546   0.00391  -0.00517
 217        5PY         0.00709  -0.00597  -0.01493  -0.00436   0.00846
 218        5PZ        -0.00064   0.00097   0.00634   0.00006   0.00066
 219        6D 0       -0.00020   0.00016   0.00041   0.00023   0.00030
 220        6D+1        0.00005   0.00005  -0.00004  -0.00005   0.00001
 221        6D-1       -0.00006  -0.00011  -0.00001   0.00004  -0.00007
 222        6D+2        0.00032   0.00126   0.00016  -0.00044   0.00098
 223        6D-2       -0.00090  -0.00024   0.00064   0.00086   0.00017
 224 12  C  1S         -0.24447  -0.09786   0.25701   0.31145   0.08464
 225        2S         -0.20122  -0.08053   0.21170   0.25626   0.06969
 226        2PX        -0.00011  -0.00009   0.00004   0.00010   0.00002
 227        2PY         0.00015   0.00023  -0.00009   0.00013   0.00015
 228        2PZ         0.00019   0.00009  -0.00018  -0.00020  -0.00005
 229        3S         -0.01023  -0.00439   0.00945   0.01304   0.00293
 230        3PX         0.00125   0.00075  -0.00070  -0.00140  -0.00032
 231        3PY        -0.00031  -0.00119  -0.00002  -0.00156  -0.00108
 232        3PZ         0.00001  -0.00003  -0.00012  -0.00018  -0.00008
 233        4S          0.03338   0.02337  -0.01910  -0.02667   0.00558
 234        4PX        -0.01157  -0.00983   0.00605   0.00644  -0.00333
 235        4PY        -0.00291  -0.00208   0.00481   0.00094  -0.00095
 236        4PZ        -0.00315  -0.00137   0.00214   0.00390  -0.00050
 237        5S          0.00959   0.00548   0.03837  -0.01688   0.00491
 238        5PX         0.00024  -0.00590  -0.00624   0.00613   0.00053
 239        5PY        -0.00498   0.00714   0.00505  -0.00278  -0.00060
 240        5PZ        -0.00032  -0.00083  -0.00144   0.00098  -0.00061
 241        6D 0        0.00029   0.00008  -0.00029  -0.00058  -0.00020
 242        6D+1        0.00000  -0.00004  -0.00003  -0.00001   0.00002
 243        6D-1        0.00002   0.00000  -0.00005  -0.00005  -0.00005
 244        6D+2       -0.00022  -0.00040   0.00008  -0.00068  -0.00037
 245        6D-2        0.00051   0.00055  -0.00024  -0.00040   0.00018
 246 13  C  1S         -0.06362  -0.03910   0.07104   0.00988  -0.01124
 247        2S         -0.05252  -0.03229   0.05874   0.00814  -0.00922
 248        2PX         0.00007   0.00018  -0.00020   0.00037   0.00012
 249        2PY        -0.00012   0.00015   0.00009   0.00063   0.00029
 250        2PZ        -0.00002  -0.00001   0.00002   0.00000   0.00001
 251        3S         -0.00173  -0.00103   0.00157   0.00038  -0.00062
 252        3PX         0.00034  -0.00056   0.00046  -0.00170  -0.00030
 253        3PY         0.00030  -0.00103  -0.00020  -0.00264  -0.00136
 254        3PZ         0.00024   0.00015  -0.00024  -0.00002   0.00000
 255        4S         -0.01892  -0.01104   0.01457   0.00414  -0.00723
 256        4PX         0.00978   0.00596  -0.00719   0.00011   0.00277
 257        4PY        -0.00574  -0.00281   0.00397   0.00362   0.00005
 258        4PZ         0.00085   0.00049  -0.00061  -0.00040   0.00088
 259        5S         -0.01326  -0.00547  -0.01514   0.00113  -0.00294
 260        5PX         0.00117   0.00567   0.00305  -0.00260  -0.00050
 261        5PY        -0.00581   0.00634  -0.00077  -0.00408  -0.00169
 262        5PZ         0.00042   0.00016   0.00063  -0.00032   0.00085
 263        6D 0       -0.00031  -0.00020   0.00046   0.00004  -0.00002
 264        6D+1       -0.00008  -0.00006   0.00003  -0.00001  -0.00005
 265        6D-1        0.00005   0.00001  -0.00002  -0.00007  -0.00001
 266        6D+2       -0.00034   0.00036   0.00025   0.00157   0.00064
 267        6D-2        0.00021   0.00048  -0.00052   0.00085   0.00042
 268 14  C  1S         -0.22776  -0.19353   0.28125  -0.24277  -0.15778
 269        2S         -0.18744  -0.15932   0.23164  -0.19977  -0.12978
 270        2PX        -0.00029  -0.00002   0.00012   0.00015  -0.00004
 271        2PY        -0.00001   0.00005   0.00000   0.00017   0.00004
 272        2PZ         0.00018   0.00014  -0.00019   0.00015   0.00010
 273        3S         -0.00986  -0.00774   0.01052  -0.00981  -0.00711
 274        3PX         0.00157  -0.00008  -0.00039  -0.00111   0.00006
 275        3PY        -0.00069  -0.00091   0.00076  -0.00186  -0.00083
 276        3PZ        -0.00002   0.00005  -0.00013   0.00018   0.00006
 277        4S          0.03884   0.01748  -0.02219   0.01105   0.02284
 278        4PX        -0.00469  -0.00081  -0.00068  -0.00088  -0.00238
 279        4PY         0.01422   0.00512  -0.00858   0.00051   0.00656
 280        4PZ        -0.00307  -0.00225   0.00245  -0.00205  -0.00318
 281        5S          0.01643   0.00161   0.03143   0.00603   0.02697
 282        5PX        -0.00591   0.00950  -0.00497  -0.00455  -0.00418
 283        5PY         0.00340   0.00098   0.00177   0.00231   0.00414
 284        5PZ        -0.00102   0.00038  -0.00125  -0.00034  -0.00117
 285        6D 0        0.00026   0.00026  -0.00034   0.00050   0.00027
 286        6D+1       -0.00002  -0.00001   0.00003  -0.00006   0.00002
 287        6D-1        0.00003  -0.00003   0.00004  -0.00003  -0.00002
 288        6D+2       -0.00046  -0.00017   0.00025  -0.00046  -0.00049
 289        6D-2        0.00071   0.00001  -0.00020  -0.00061  -0.00001
 290 15  H  1S         -0.00013  -0.00004   0.00005  -0.00008  -0.00009
 291        2S          0.00035  -0.00003  -0.00065  -0.00055  -0.00051
 292        3S          0.00214  -0.00011  -0.00016  -0.00110   0.00082
 293 16  H  1S          0.00023   0.00014  -0.00025  -0.00002  -0.00001
 294        2S         -0.00105  -0.00058   0.00043   0.00003   0.00008
 295        3S         -0.00319  -0.00196   0.00358   0.00042  -0.00039
 296 17  H  1S         -0.00010  -0.00008   0.00004   0.00013   0.00000
 297        2S          0.00019   0.00043  -0.00068   0.00067   0.00003
 298        3S          0.00119   0.00184  -0.00004   0.00012   0.00131
 299 18  H  1S          0.00003   0.00013   0.00001  -0.00001   0.00014
 300        2S         -0.00039  -0.00045  -0.00066  -0.00002   0.00061
 301        3S         -0.00107  -0.00195   0.00040   0.00116   0.00035
 302 19  H  1S         -0.00005  -0.00030  -0.00021   0.00000  -0.00004
 303        2S          0.00011   0.00123   0.00027   0.00014   0.00006
 304        3S          0.00060   0.00420   0.00293  -0.00051   0.00059
 305 20  H  1S         -0.00002   0.00015   0.00004  -0.00007  -0.00011
 306        2S          0.00012  -0.00034  -0.00061  -0.00038  -0.00073
 307        3S          0.00116  -0.00197   0.00017   0.00076  -0.00075
 308 21  H  1S         -0.00029   0.00017  -0.00017   0.00003  -0.00003
 309        2S          0.00107  -0.00066   0.00011  -0.00018  -0.00006
 310        3S          0.00398  -0.00232   0.00231  -0.00003   0.00080
 311 22  H  1S          0.00012  -0.00010   0.00001   0.00012  -0.00005
 312        2S         -0.00023   0.00040  -0.00056   0.00075  -0.00035
 313        3S         -0.00094   0.00202   0.00057  -0.00003  -0.00109
 314 23  H  1S          0.00007  -0.00005  -0.00013  -0.00023  -0.00029
 315        2S         -0.00006  -0.00008  -0.00035   0.00193   0.00238
 316        3S          0.00043  -0.00006   0.00199  -0.00091  -0.00087
 317 24  H  1S          0.00001   0.00011  -0.00014   0.00035  -0.00006
 318        2S         -0.00029  -0.00005  -0.00016  -0.00302   0.00044
 319        3S          0.00043   0.00015   0.00192   0.00135   0.00002
 320 25  H  1S          0.00005   0.00000   0.00029   0.00000   0.00003
 321        2S         -0.00031   0.00002  -0.00197   0.00003  -0.00022
 322        3S         -0.00053   0.00003  -0.00340   0.00005  -0.00039
 323 26  H  1S         -0.00015  -0.00006  -0.00016  -0.00012   0.00030
 324        2S          0.00030   0.00014   0.00018   0.00110  -0.00286
 325        3S          0.00003  -0.00015   0.00178  -0.00052   0.00150
 326 27  H  1S         -0.00038   0.00017  -0.00013  -0.00044   0.00014
 327        2S          0.00318  -0.00179   0.00070   0.00329  -0.00083
 328        3S          0.00495  -0.00231   0.00169   0.00414  -0.00144
 329 28  H  1S         -0.00029   0.00018  -0.00013   0.00001  -0.00005
 330        2S          0.00033  -0.00020   0.00005   0.00002   0.00008
 331        3S         -0.00131   0.00081  -0.00048  -0.00053  -0.00090
 332 29  H  1S         -0.00023   0.00021  -0.00007   0.00031  -0.00041
 333        2S          0.00235  -0.00170   0.00022  -0.00214   0.00321
 334        3S          0.00350  -0.00284   0.00109  -0.00324   0.00413
 335 30  H  1S          0.00026   0.00010  -0.00020  -0.00045  -0.00003
 336        2S         -0.00239  -0.00124   0.00141   0.00335  -0.00008
 337        3S         -0.00364  -0.00168   0.00274   0.00462   0.00042
 338 31  H  1S          0.00025   0.00015  -0.00023  -0.00003   0.00003
 339        2S         -0.00031  -0.00017   0.00018   0.00005  -0.00008
 340        3S          0.00103   0.00063  -0.00105  -0.00045   0.00095
 341 32  H  1S          0.00026   0.00020  -0.00023   0.00031   0.00030
 342        2S         -0.00255  -0.00158   0.00173  -0.00203  -0.00250
 343        3S         -0.00362  -0.00258   0.00311  -0.00312  -0.00293
 344 33  H  1S         -0.00008  -0.00037  -0.00018   0.00025   0.00037
 345        2S          0.00035   0.00343   0.00125  -0.00204  -0.00262
 346        3S          0.00099   0.00500   0.00246  -0.00228  -0.00365
 347 34  H  1S         -0.00004  -0.00032  -0.00018   0.00003  -0.00004
 348        2S          0.00003   0.00037   0.00011  -0.00007   0.00004
 349        3S         -0.00009  -0.00142  -0.00074   0.00101  -0.00030
 350 35  H  1S          0.00003  -0.00030  -0.00012   0.00003  -0.00048
 351        2S          0.00000   0.00282   0.00071  -0.00052   0.00351
 352        3S         -0.00015   0.00431   0.00178  -0.00030   0.00493
                           6         7         8         9        10
                           O         O         O         O         O
     Eigenvalues --   -10.13112 -10.12927 -10.12918 -10.12917 -10.12916
   1 1   C  1S         -0.18492   0.00504   0.01602  -0.05442  -0.04505
   2        2S         -0.15212   0.00423   0.01314  -0.04465  -0.03689
   3        2PX         0.00004   0.00021   0.00007  -0.00013  -0.00001
   4        2PY        -0.00005   0.00024   0.00019  -0.00058  -0.00038
   5        2PZ         0.00013  -0.00001  -0.00004   0.00007   0.00008
   6        3S         -0.00797  -0.00045   0.00094  -0.00286  -0.00278
   7        3PX        -0.00076  -0.00118  -0.00034   0.00069  -0.00013
   8        3PY         0.00078  -0.00100  -0.00075   0.00240   0.00142
   9        3PZ         0.00006   0.00000   0.00011  -0.00009  -0.00014
  10        4S          0.01717   0.00143  -0.00722   0.03127   0.01691
  11        4PX         0.00427   0.00001  -0.00363   0.01052   0.00493
  12        4PY        -0.00058   0.00608   0.00553  -0.00953  -0.00183
  13        4PZ        -0.00265  -0.00016   0.00028  -0.00202  -0.00177
  14        5S          0.11215   0.00644   0.01790   0.00261   0.06176
  15        5PX         0.01744  -0.00018   0.00600   0.00314   0.00827
  16        5PY        -0.00123  -0.00208   0.01113  -0.00020  -0.00177
  17        5PZ        -0.00022   0.00043   0.00057  -0.00062  -0.00002
  18        6D 0        0.00032  -0.00004  -0.00014   0.00051   0.00046
  19        6D+1       -0.00004  -0.00003   0.00001  -0.00001  -0.00003
  20        6D-1       -0.00001   0.00004  -0.00003   0.00009   0.00008
  21        6D+2        0.00044  -0.00082  -0.00052   0.00122   0.00092
  22        6D-2       -0.00032  -0.00042  -0.00013   0.00012  -0.00006
  23 2   C  1S          0.00492  -0.10509  -0.13704   0.40314   0.33653
  24        2S          0.00406  -0.08636  -0.11274   0.33173   0.27698
  25        2PX         0.00022   0.00009   0.00006  -0.00014  -0.00012
  26        2PY        -0.00037   0.00005   0.00002  -0.00009  -0.00006
  27        2PZ         0.00000   0.00003   0.00009  -0.00028  -0.00024
  28        3S          0.00014  -0.00501  -0.00586   0.01670   0.01345
  29        3PX        -0.00078  -0.00102  -0.00072   0.00189   0.00151
  30        3PY         0.00138  -0.00059  -0.00035   0.00113   0.00085
  31        3PZ        -0.00002   0.00017   0.00004  -0.00007  -0.00004
  32        4S          0.00143   0.01321   0.01902  -0.04429  -0.02522
  33        4PX         0.00210   0.00260   0.00588  -0.01307  -0.00823
  34        4PY        -0.00214   0.00152   0.00254  -0.00808  -0.00447
  35        4PZ        -0.00009  -0.00221  -0.00196   0.00525   0.00392
  36        5S          0.00026  -0.00915   0.00185  -0.03291  -0.05425
  37        5PX         0.00235  -0.00018  -0.00362  -0.00811  -0.00896
  38        5PY        -0.00389  -0.00033   0.00660   0.00062  -0.00807
  39        5PZ        -0.00004  -0.00037  -0.00049   0.00121   0.00079
  40        6D 0        0.00002   0.00036   0.00032  -0.00088  -0.00069
  41        6D+1       -0.00004  -0.00005  -0.00003   0.00008   0.00006
  42        6D-1        0.00006  -0.00003  -0.00001   0.00005   0.00004
  43        6D+2       -0.00089   0.00018   0.00015  -0.00047  -0.00037
  44        6D-2        0.00055   0.00031   0.00029  -0.00080  -0.00066
  45 3   C  1S          0.22031   0.00509   0.01934  -0.05277  -0.04637
  46        2S          0.18126   0.00427   0.01591  -0.04327  -0.03798
  47        2PX        -0.00001   0.00031   0.00026  -0.00053  -0.00035
  48        2PY        -0.00006   0.00007  -0.00005   0.00016   0.00018
  49        2PZ        -0.00015  -0.00001  -0.00001   0.00009   0.00007
  50        3S          0.00945  -0.00044   0.00078  -0.00298  -0.00274
  51        3PX        -0.00015  -0.00145  -0.00124   0.00217   0.00131
  52        3PY         0.00115  -0.00052   0.00008  -0.00060  -0.00082
  53        3PZ        -0.00006   0.00001  -0.00003  -0.00017  -0.00009
  54        4S         -0.02230   0.00163  -0.01566   0.02614   0.01973
  55        4PX        -0.00203   0.00531   0.00201  -0.00361   0.00119
  56        4PY        -0.00585  -0.00300  -0.00717   0.01312   0.00560
  57        4PZ         0.00318  -0.00017   0.00077  -0.00173  -0.00193
  58        5S         -0.11291   0.00635   0.01949   0.00371   0.06120
  59        5PX        -0.00753  -0.00145  -0.00443  -0.00903   0.00826
  60        5PY        -0.01603   0.00082   0.00143   0.00392   0.00746
  61        5PZ         0.00028   0.00044   0.00032  -0.00077   0.00006
  62        6D 0       -0.00036  -0.00004  -0.00016   0.00050   0.00047
  63        6D+1        0.00003   0.00002  -0.00003   0.00007   0.00006
  64        6D-1        0.00003  -0.00004   0.00001  -0.00007  -0.00006
  65        6D+2        0.00056   0.00005   0.00014  -0.00051  -0.00051
  66        6D-2       -0.00015  -0.00092  -0.00043   0.00117   0.00073
  67 4   H  1S          0.00011   0.00001   0.00011  -0.00026  -0.00016
  68        2S          0.00049  -0.00087  -0.00076   0.00103  -0.00037
  69        3S          0.00004  -0.00100  -0.00158   0.00287   0.00123
  70 5   C  1S         -0.00170   0.10300   0.00092  -0.01178   0.01974
  71        2S         -0.00139   0.08482   0.00080  -0.00967   0.01634
  72        2PX        -0.00049   0.00000   0.00010  -0.00006  -0.00003
  73        2PY         0.00001   0.00060   0.00007  -0.00002   0.00023
  74        2PZ         0.00000   0.00002  -0.00002  -0.00002  -0.00001
  75        3S         -0.00025   0.00399   0.00009  -0.00022   0.00042
  76        3PX         0.00168   0.00002  -0.00094   0.00056   0.00026
  77        3PY        -0.00004  -0.00197  -0.00007   0.00026  -0.00066
  78        3PZ         0.00000  -0.00028   0.00004   0.00009  -0.00004
  79        4S          0.00251   0.00916  -0.01366  -0.02211  -0.00243
  80        4PX        -0.01285   0.00041  -0.01754   0.01040   0.00484
  81        4PY         0.00111   0.01622  -0.00209  -0.00849   0.00950
  82        4PZ        -0.00024  -0.00101   0.00000  -0.00003   0.00012
  83        5S         -0.00463   0.00021  -0.00210   0.00704  -0.02283
  84        5PX        -0.09327  -0.00027   0.01173  -0.00692  -0.00329
  85        5PY         0.00161   0.00105  -0.00235  -0.02064   0.03581
  86        5PZ         0.00021  -0.00139  -0.00044   0.00067  -0.00288
  87        6D 0       -0.00001   0.00004   0.00007   0.00008   0.00007
  88        6D+1        0.00010   0.00000   0.00004  -0.00002  -0.00001
  89        6D-1        0.00000  -0.00022  -0.00006  -0.00005  -0.00009
  90        6D+2        0.00001   0.00145  -0.00009  -0.00030   0.00018
  91        6D-2       -0.00102  -0.00001   0.00034  -0.00020  -0.00010
  92 6   C  1S          0.00007   0.49810   0.06574   0.00905   0.17763
  93        2S          0.00006   0.40975   0.05412   0.00745   0.14625
  94        2PX         0.00000   0.00000   0.00011  -0.00007  -0.00003
  95        2PY         0.00000   0.00000  -0.00006  -0.00012   0.00002
  96        2PZ         0.00000  -0.00025  -0.00003   0.00000  -0.00007
  97        3S         -0.00002   0.02358   0.00277   0.00037   0.00727
  98        3PX         0.00003   0.00002  -0.00086   0.00051   0.00024
  99        3PY         0.00000  -0.00002   0.00048   0.00090  -0.00019
 100        3PZ         0.00000  -0.00005  -0.00004  -0.00001  -0.00012
 101        4S         -0.00019  -0.07326  -0.00835  -0.00111  -0.02184
 102        4PX         0.00002  -0.00050   0.02054  -0.01217  -0.00570
 103        4PY         0.00253   0.00034  -0.01141  -0.02126   0.00447
 104        4PZ        -0.00004   0.01106   0.00107   0.00014   0.00265
 105        5S         -0.00164  -0.01253  -0.04790  -0.00736  -0.15640
 106        5PX        -0.00001  -0.00001   0.00061  -0.00036  -0.00018
 107        5PY         0.00119   0.00000  -0.00033  -0.00062   0.00012
 108        5PZ        -0.00015   0.00317   0.00197   0.00030   0.00620
 109        6D 0        0.00000  -0.00070  -0.00006  -0.00001  -0.00015
 110        6D+1        0.00000   0.00000  -0.00001   0.00000   0.00000
 111        6D-1        0.00000   0.00000   0.00000   0.00001   0.00000
 112        6D+2       -0.00006   0.00000   0.00002   0.00003  -0.00001
 113        6D-2        0.00001   0.00000  -0.00003   0.00002   0.00001
 114 7   C  1S          0.00202   0.10327   0.02174   0.00102   0.01295
 115        2S          0.00166   0.08504   0.01790   0.00084   0.01076
 116        2PX         0.00019   0.00052   0.00011  -0.00005   0.00019
 117        2PY         0.00036  -0.00030  -0.00006  -0.00011  -0.00010
 118        2PZ         0.00000   0.00002   0.00002   0.00000  -0.00002
[...]
  43         O                -0.324730          1.535753
  44         O                -0.324713          1.535813
  45         O                -0.271520          1.316655
  46         O                -0.262792          1.347188
  47         O                -0.262788          1.347207
  48         O                -0.186867          1.465639
  49         O                -0.186853          1.465612
  50         O                -0.121047          1.669381
  51         V                -0.060524          0.457467
  52         V                -0.008579          0.394453
  53         V                -0.008564          0.394503
  54         V                 0.006283          0.320362
  55         V                 0.025354          0.308310
  56         V                 0.025359          0.308240
  57         V                 0.028873          0.340319
  58         V                 0.028885          0.340557
  59         V                 0.037397          0.209387
  60         V                 0.052693          0.333111
  61         V                 0.053096          0.247133
  62         V                 0.064037          0.245037
  63         V                 0.064053          0.244965
  64         V                 0.071314          0.365394
  65         V                 0.071326          0.365510
  66         V                 0.074150          0.400796
  67         V                 0.084343          0.347104
  68         V                 0.084366          0.347320
  69         V                 0.106991          0.417771
  70         V                 0.107002          0.417855
  71         V                 0.110287          0.366234
  72         V                 0.119409          0.270281
  73         V                 0.120749          0.355053
  74         V                 0.131663          0.348758
  75         V                 0.131678          0.348812
  76         V                 0.144507          0.348317
  77         V                 0.144513          0.348398
  78         V                 0.149126          0.610721
  79         V                 0.158661          0.607995
  80         V                 0.159891          0.672026
  81         V                 0.171008          0.443058
  82         V                 0.171291          0.751186
  83         V                 0.171301          0.750266
  84         V                 0.175573          0.334769
  85         V                 0.175600          0.336126
  86         V                 0.179130          0.408716
  87         V                 0.185039          0.711562
  88         V                 0.185100          0.712815
  89         V                 0.192306          0.627713
  90         V                 0.192384          0.624863
  91         V                 0.194313          0.648148
  92         V                 0.196222          0.776016
  93         V                 0.215638          1.008721
  94         V                 0.215651          1.008434
  95         V                 0.216453          0.816924
  96         V                 0.220236          0.711176
  97         V                 0.220240          0.710790
  98         V                 0.230383          0.737625
  99         V                 0.238065          0.598809
 100         V                 0.238132          0.598332
 101         V                 0.243657          0.825756
 102         V                 0.243679          0.825729
 103         V                 0.251546          0.615576
 104         V                 0.257186          0.847422
 105         V                 0.257191          0.848059
 106         V                 0.264959          1.143926
 107         V                 0.271731          1.030775
 108         V                 0.271768          1.030935
 109         V                 0.290820          0.743604
 110         V                 0.290864          0.745675
 111         V                 0.298661          0.883533
 112         V                 0.305233          1.231408
 113         V                 0.305398          1.234281
 114         V                 0.313313          0.632641
 115         V                 0.316312          1.054956
 116         V                 0.316319          1.054801
 117         V                 0.316472          1.052369
 118         V                 0.338259          0.963531
 119         V                 0.345967          0.862796
 120         V                 0.346019          0.861747
 121         V                 0.347908          0.761595
 122         V                 0.352132          0.970599
 123         V                 0.352139          0.970675
 124         V                 0.376908          0.708974
 125         V                 0.393606          0.995968
 126         V                 0.393749          0.995618
 127         V                 0.394822          1.081061
 128         V                 0.403239          0.939826
 129         V                 0.403290          0.939120
 130         V                 0.417525          1.895471
 131         V                 0.417869          1.383022
 132         V                 0.441787          1.346562
 133         V                 0.441803          1.346775
 134         V                 0.461058          1.263471
 135         V                 0.467193          1.327662
 136         V                 0.471251          1.155610
 137         V                 0.471273          1.155416
 138         V                 0.479929          1.145775
 139         V                 0.508100          1.213972
 140         V                 0.508104          1.214513
 141         V                 0.532876          1.799551
 142         V                 0.538332          1.301678
 143         V                 0.538381          1.301272
 144         V                 0.543414          1.216461
 145         V                 0.573694          1.820277
 146         V                 0.573744          1.820149
 147         V                 0.625904          1.469237
 148         V                 0.638111          1.582629
 149         V                 0.638134          1.582524
 150         V                 0.664626          1.691035
 151         V                 0.673613          1.910331
 152         V                 0.673637          1.910140
 153         V                 0.681291          1.778207
 154         V                 0.688382          1.814374
 155         V                 0.688399          1.814569
 156         V                 0.703994          1.770867
 157         V                 0.704008          1.771236
 158         V                 0.707013          1.842683
 159         V                 0.715448          1.837005
 160         V                 0.730331          2.015227
 161         V                 0.730354          2.015051
 162         V                 0.744311          2.040991
 163         V                 0.744335          2.041066
 164         V                 0.755791          1.846055
 165         V                 0.759518          2.268677
 166         V                 0.775402          2.000654
 167         V                 0.775445          2.004748
 168         V                 0.775618          2.207917
 169         V                 0.783459          2.331417
 170         V                 0.783477          2.331377
 171         V                 0.787009          2.126857
 172         V                 0.796994          2.409961
 173         V                 0.806114          1.709311
 174         V                 0.819808          2.845622
 175         V                 0.819898          2.845044
 176         V                 0.833683          2.210214
 177         V                 0.833695          2.210167
 178         V                 0.844903          2.442655
 179         V                 0.850501          1.845200
 180         V                 0.871748          2.104825
 181         V                 0.871765          2.105443
 182         V                 0.875955          2.688950
 183         V                 0.875981          2.689306
 184         V                 0.904835          1.901090
 185         V                 0.904862          1.901082
 186         V                 0.910175          2.941796
 187         V                 0.938993          1.816962
 188         V                 0.939013          1.816950
 189         V                 0.965953          1.685739
 190         V                 0.965969          1.685840
 191         V                 0.968190          1.912308
 192         V                 0.983502          1.726914
 193         V                 0.995944          2.074071
 194         V                 1.005040          1.882273
 195         V                 1.005072          1.882178
 196         V                 1.057897          2.223241
 197         V                 1.081522          2.076907
 198         V                 1.081569          2.076932
 199         V                 1.084320          1.988462
 200         V                 1.102435          1.893399
 201         V                 1.112193          2.118093
 202         V                 1.112228          2.118172
 203         V                 1.149214          2.172871
 204         V                 1.149250          2.172924
 205         V                 1.156524          2.159560
 206         V                 1.179709          2.278026
 207         V                 1.179760          2.277989
 208         V                 1.241558          2.174739
 209         V                 1.241590          2.174864
 210         V                 1.242352          2.487801
 211         V                 1.261973          2.397275
 212         V                 1.307277          2.513213
 213         V                 1.307312          2.513220
 214         V                 1.381952          2.690177
 215         V                 1.381967          2.690194
 216         V                 1.404802          2.626387
 217         V                 1.415105          2.543217
 218         V                 1.415137          2.543353
 219         V                 1.420337          2.727671
 220         V                 1.487125          2.564595
 221         V                 1.487161          2.564404
 222         V                 1.491125          2.605110
 223         V                 1.502615          2.550575
 224         V                 1.502634          2.550212
 225         V                 1.518023          2.702780
 226         V                 1.562120          2.824205
 227         V                 1.562201          2.824443
 228         V                 1.576581          2.676485
 229         V                 1.606319          2.728717
 230         V                 1.606342          2.728661
 231         V                 1.609271          2.637327
 232         V                 1.674814          2.821750
 233         V                 1.674826          2.821657
 234         V                 1.726726          3.076724
 235         V                 1.759310          3.013885
 236         V                 1.794650          3.137755
 237         V                 1.794655          3.137018
 238         V                 1.794791          3.042000
 239         V                 1.798213          3.160135
 240         V                 1.834391          3.098244
 241         V                 1.834409          3.098169
 242         V                 1.866725          3.247495
 243         V                 1.872529          3.155513
 244         V                 1.872574          3.155424
 245         V                 1.899240          3.177478
 246         V                 1.899266          3.177764
 247         V                 1.931604          3.142234
 248         V                 1.943948          3.239878
 249         V                 1.944039          3.239997
 250         V                 1.983861          3.434937
 251         V                 2.021812          3.474608
 252         V                 2.034676          3.319729
 253         V                 2.034731          3.320191
 254         V                 2.051948          3.912836
 255         V                 2.051992          3.913278
 256         V                 2.058651          3.902646
 257         V                 2.058677          3.902326
 258         V                 2.132892          3.361392
 259         V                 2.143201          3.810530
 260         V                 2.180946          3.856589
 261         V                 2.318098          4.030633
 262         V                 2.318117          4.030306
 263         V                 2.333021          4.301112
 264         V                 2.333064          4.301543
 265         V                 2.358840          4.099539
 266         V                 2.360593          3.591004
 267         V                 2.360609          3.590809
 268         V                 2.424813          4.613088
 269         V                 2.455099          4.418669
 270         V                 2.455210          4.418780
 271         V                 2.484197          4.725147
 272         V                 2.484252          4.725200
 273         V                 2.517475          4.554177
 274         V                 2.525218          4.642982
 275         V                 2.594736          5.120964
 276         V                 2.627372          5.088310
 277         V                 2.627383          5.088309
 278         V                 2.682593          5.049334
 279         V                 2.687179          5.125005
 280         V                 2.687210          5.125358
 281         V                 2.721055          5.427857
 282         V                 2.736239          5.104670
 283         V                 2.736298          5.104888
 284         V                 2.786870          5.367188
 285         V                 2.800426          5.235345
 286         V                 2.800467          5.235772
 287         V                 2.851936          6.015343
 288         V                 2.876668          5.228298
 289         V                 2.876718          5.228313
 290         V                 2.895227          5.489198
 291         V                 2.945543          6.071417
 292         V                 2.945557          6.071543
 293         V                 2.988480          5.354979
 294         V                 2.988547          5.354733
 295         V                 3.090324          5.553589
 296         V                 3.163272          6.038695
 297         V                 3.163295          6.038497
 298         V                 3.217684          7.247468
 299         V                 3.217800          7.247811
 300         V                 3.222918          6.042578
 301         V                 3.281152          7.317524
 302         V                 3.292605          6.639526
 303         V                 3.318497          6.918526
 304         V                 3.318523          6.918502
 305         V                 3.343621          5.584533
 306         V                 3.371282          6.767216
 307         V                 3.371307          6.767141
 308         V                 3.371735          6.641356
 309         V                 3.400610          7.238067
 310         V                 3.400673          7.238076
 311         V                 3.412341          6.496893
 312         V                 3.501295          5.648899
 313         V                 3.501404          5.649132
 314         V                 3.528568          6.537045
 315         V                 3.624327          6.484830
 316         V                 3.624332          6.484947
 317         V                 3.705710          7.133063
 318         V                 3.705781          7.133539
 319         V                 3.722053          7.095231
 320         V                 3.774830          7.109669
 321         V                 3.781790          7.150595
 322         V                 3.781864          7.150648
 323         V                 3.900045          7.326856
 324         V                 3.953487          7.722559
 325         V                 4.011791          7.341442
 326         V                 4.011840          7.341087
 327         V                 4.074666          7.169593
 328         V                 4.074710          7.169397
 329         V                 4.290622          7.687209
 330         V                 4.290723          7.687460
 331         V                 4.382855          7.293504
 332         V                 4.706255          7.809217
 333         V                 4.784012          7.927583
 334         V                 4.784081          7.927373
 335         V                23.341580         60.125777
 336         V                23.808768         60.293025
 337         V                23.808983         60.293135
 338         V                24.085729         60.388708
 339         V                24.085755         60.388722
 340         V                24.112639         60.414981
 341         V                24.129692         60.407693
 342         V                24.173203         60.441254
 343         V                24.173264         60.441290
 344         V                24.191973         60.457522
 345         V                24.211998         60.408663
 346         V                24.229369         60.443193
 347         V                24.229427         60.443282
 Total kinetic energy from orbitals= 5.134683978897D+02
 1\1\GINC-HOGWARTS\SP\RB3LYP\6-311+G(d)\C13H22\ANUJA\04-May-2014\0\\# B
 3LYP/6-311+G* NMR=GIAO POP=FULL SCF(MAXCYCLE=512)\\-------------------
 ------------------------------- # Center 1\\0,1\C,0,-1.21707,0.68725,0
 .\C,0,-1.21707,-0.70379,0.\C,0,-0.01156,-1.39776,0.\H,0,-0.01514,-2.48
 311,0.\C,0,1.22587,-0.71165,0.\C,0,1.22501,0.70836,0.\C,0,-0.00518,1.4
 1759,0.\C,0,0.01954,2.83229,0.\C,0,1.22338,3.52928,0.\C,0,2.42805,2.83
 389,0.\C,0,2.45453,1.41926,0.\C,0,3.66739,0.69078,0.\C,0,3.66905,-0.70
 023,0.\C,0,2.46435,-1.39586,0.\H,0,2.4695,-2.48118,0.\H,0,4.60745,-1.2
 4144,0.\H,0,4.60883,1.23072,0.\H,0,3.36531,3.38111,0.\H,0,1.22272,4.61
 257,0.\H,0,-0.91852,3.37815,0.\H,0,-2.15481,-1.24609,0.\H,0,-2.15957,1
 .22543,0.\H,0,2.45453,1.41926,-1.\H,0,1.22587,-0.71165,-1.\H,0,1.22501
 ,0.70836,-1.\H,0,-0.00518,1.41759,-1.\H,0,-1.29296,0.73011,-0.9962\H,0
 ,-1.29252,-0.74742,-0.9962\H,0,-0.01228,-1.48491,-0.99619\H,0,3.74323,
 0.73374,-0.9962\H,0,3.74456,-0.74376,-0.9962\H,0,2.46518,-1.48301,-0.9
 9619\H,0,-0.05558,2.87648,-0.9962\H,0,1.22333,3.61644,-0.9962\H,0,2.50
 311,2.87819,-0.9962\Bq,0,0.,0.,0.\Bq,0,0.,0.,0.1\Bq,0,0.,0.,0.2\Bq,0,0
 .,0.,0.3\Bq,0,0.,0.,0.4\Bq,0,0.,0.,0.5\Bq,0,0.,0.,0.6\Bq,0,0.,0.,0.7\B
 q,0,0.,0.,0.8\Bq,0,0.,0.,0.9\Bq,0,0.,0.,1.\Bq,0,0.,0.,1.1\Bq,0,0.,0.,1
 .2\Bq,0,0.,0.,1.3\Bq,0,0.,0.,1.4\Bq,0,0.,0.,1.5\Bq,0,0.,0.,1.6\Bq,0,0.
 ,0.,1.7\Bq,0,0.,0.,1.8\Bq,0,0.,0.,1.9\Bq,0,0.,0.,2.\Bq,0,0.,0.,2.1\Bq,
 0,0.,0.,2.2\Bq,0,0.,0.,2.3\Bq,0,0.,0.,2.4\Bq,0,0.,0.,2.5\Bq,0,0.,0.,2.
 6\Bq,0,0.,0.,2.7\Bq,0,0.,0.,2.8\Bq,0,0.,0.,2.9\Bq,0,0.,0.,3.\Bq,0,0.,0
 .,3.1\Bq,0,0.,0.,3.2\Bq,0,0.,0.,3.3\Bq,0,0.,0.,3.4\Bq,0,0.,0.,3.5\Bq,0
 ,0.,0.,3.6\Bq,0,0.,0.,3.7\Bq,0,0.,0.,3.8\Bq,0,0.,0.,3.9\\Version=EM64L
 -G09RevD.01\HF=-507.5190765\RMSD=6.445e-09\Dipole=-0.0001032,0.0000938
 ,-2.1294502\Quadrupole=-1.3071269,-1.3057496,2.6128765,0.0008532,-4.92
 99642,-2.8505289\PG=C01 [X(C13H22)]\\@


 Not by the face shall a man be known, but by the mask.
                               -- Karen Blixen
 Job cpu time:       0 days  0 hours 42 minutes 44.6 seconds.
 File lengths (MBytes):  RWF=     72 Int=      0 D2E=      0 Chk=      8 Scr=      1
 Normal termination of Gaussian 09 at Sun May  4 19:48:48 2014.
