 Entering Gaussian System, Link 0=/usr/local/g09/g09
 Input=/home/anuja/input/phenalene-y-sigma-guessonly.in
 Output=/home/anuja/output/phenalene-y-sigma-guessonly.log
 Initial command:
 /usr/local/g09-D.01/g09/l1.exe /gtmp/Gau-5210.inp -scrdir=/gtmp/
 Entering Link 1 = /usr/local/g09-D.01/g09/l1.exe PID=      5212.
  
 Copyright (c) 1988,1990,1992,1993,1995,1998,2003,2009,2013,
            Gaussian, Inc.  All Rights Reserved.
  
 This is part of the Gaussian(R) 09 program.  It is based on
 the Gaussian(R) 03 system (copyright 2003, Gaussian, Inc.),
 the Gaussian(R) 98 system (copyright 1998, Gaussian, Inc.),
 the Gaussian(R) 94 system (copyright 1995, Gaussian, Inc.),
 the Gaussian 92(TM) system (copyright 1992, Gaussian, Inc.),
 the Gaussian 90(TM) system (copyright 1990, Gaussian, Inc.),
 the Gaussian 88(TM) system (copyright 1988, Gaussian, Inc.),
 the Gaussian 86(TM) system (copyright 1986, Carnegie Mellon
 University), and the Gaussian 82(TM) system (copyright 1983,
 Carnegie Mellon University). Gaussian is a federally registered
 trademark of Gaussian, Inc.
  
 This software contains proprietary and confidential information,
 including trade secrets, belonging to Gaussian, Inc.
  
 This software is provided under written license and may be
 used, copied, transmitted, or stored only in accord with that
 written license.
  
 The following legend is applicable only to US Government
 contracts under FAR:
  
                    RESTRICTED RIGHTS LEGEND
  
 Use, reproduction and disclosure by the US Government is
 subject to restrictions as set forth in subparagraphs (a)
 and (c) of the Commercial Computer Software - Restricted
 Rights clause in FAR 52.227-19.
  
 Gaussian, Inc.
 340 Quinnipiac St., Bldg. 40, Wallingford CT 06492
  
  
 ---------------------------------------------------------------
 Warning -- This program may not be used in any manner that
 competes with the business of Gaussian, Inc. or will provide
 assistance to any competitor of Gaussian, Inc.  The licensee
 of this program is prohibited from giving any competitor of
 Gaussian, Inc. access to this program.  By using this program,
 the user acknowledges that Gaussian, Inc. is engaged in the
 business of creating and licensing software in the field of
 computational chemistry and represents and warrants to the
 licensee that it is not a competitor of Gaussian, Inc. and that
 it will not use this program in any manner prohibited above.
 ---------------------------------------------------------------
  

 Cite this work as:
 Gaussian 09, Revision D.01,
 M. J. Frisch, G. W. Trucks, H. B. Schlegel, G. E. Scuseria, 
 M. A. Robb, J. R. Cheeseman, G. Scalmani, V. Barone, B. Mennucci, 
 G. A. Petersson, H. Nakatsuji, M. Caricato, X. Li, H. P. Hratchian, 
 A. F. Izmaylov, J. Bloino, G. Zheng, J. L. Sonnenberg, M. Hada, 
 M. Ehara, K. Toyota, R. Fukuda, J. Hasegawa, M. Ishida, T. Nakajima, 
 Y. Honda, O. Kitao, H. Nakai, T. Vreven, J. A. Montgomery, Jr., 
 J. E. Peralta, F. Ogliaro, M. Bearpark, J. J. Heyd, E. Brothers, 
 K. N. Kudin, V. N. Staroverov, T. Keith, R. Kobayashi, J. Normand, 
 K. Raghavachari, A. Rendell, J. C. Burant, S. S. Iyengar, J. Tomasi, 
 M. Cossi, N. Rega, J. M. Millam, M. Klene, J. E. Knox, J. B. Cross, 
 V. Bakken, C. Adamo, J. Jaramillo, R. Gomperts, R. E. Stratmann, 
 O. Yazyev, A. J. Austin, R. Cammi, C. Pomelli, J. W. Ochterski, 
 R. L. Martin, K. Morokuma, V. G. Zakrzewski, G. A. Voth, 
 P. Salvador, J. J. Dannenberg, S. Dapprich, A. D. Daniels, 
 O. Farkas, J. B. Foresman, J. V. Ortiz, J. Cioslowski, 
 and D. J. Fox, Gaussian, Inc., Wallingford CT, 2013.
 
 ******************************************
 Gaussian 09:  EM64L-G09RevD.01 24-Apr-2013
                 4-May-2014 
 ******************************************
 ------------
 # guess=only
 ------------
 1/38=1/1;
 2/12=2,17=6,18=5,40=1/2;
 3/11=9,16=1,25=1,30=1,89=1/1,2;
 4//1;
 6/7=3,28=1/1;
 99/5=2/99;
 --------------------------------------------------
 Compund 12 from Renana's XY Paper sigma only model
 --------------------------------------------------
 Symbolic Z-matrix:
 Charge =  0 Multiplicity = 1
 6
 6                    1     1.39105 
 6                    2     1.39099  1     119.92731 
 1                    3     1.08535  2     119.73841  1     180.     0
 6                    3     1.41492  2     121.06597  1     0.       0
 6                    5     1.42001  3     118.97193  2     0.       0
 6                    6     1.41999  5     119.99913  3     0.       0
 6                    7     1.41491  6     118.96325  5     180.     0
 6                    8     1.39106  7     121.07095  6     0.       0
 6                    9     1.39097  8     119.93475  7     0.       0
 6                    10    1.41488  9     121.06768  8     0.       0
 6                    11    1.41482  10    122.06261  9     180.     0
 6                    12    1.39102  11    121.05854  10    180.     0
 6                    13    1.39111  12    119.93489  11    0.       0
 1                    14    1.08534  13    119.73128  12    180.     0
 1                    13    1.08328  12    120.04181  11    180.     0
 1                    12    1.08528  11    119.17421  10    0.       0
 1                    10    1.0853   9     119.72614  8     180.     0
 1                    9     1.08329  8     120.03505  7     180.     0
 1                    8     1.08532  7     119.19424  6     180.     0
 1                    2     1.08325  1     120.04067  3     180.     0
 1                    1     1.08533  2     119.72707  3     180.     0
 0                    1     1.39771  2     60.54762  3     0.       0
 0                    1     1.7186   2     66.42864  3     39.40803  0
 0                    1     3.73161  2     79.41499  3     0.       0
 0                    1     3.86327  2     79.77969  3     15.24941  0
 0                    1     2.83241  2     120.46796  3     0.       0
 0                    1     3.00376  2     118.56348  3     22.27492  0
 0                    1     2.44222  2     90.49595  3     0.       0
 0                    1     2.63902  2     90.45897  3     22.26804  0
 1                    11    1.       27    90.      28    0.       0
 1                    5     1.       27    90.      28    0.       0
 1                    6     1.       27    90.      28    0.       0
 1                    7     1.       27    90.      28    0.       0
 1                    1     1.       23    95.      24    0.       0
 1                    2     1.       23    95.      24    0.       0
 1                    3     1.       23    95.      24    0.       0
 1                    12    1.       25    95.      26    0.       0
 1                    13    1.       25    95.      26    0.       0
 1                    14    1.       25    95.      26    0.       0
 1                    8     1.       27    95.      28    0.       0
 1                    9     1.       27    95.      28    0.       0
 1                    10    1.       27    95.      28    0.       0
 
                          Input orientation:                          
 ---------------------------------------------------------------------
 Center     Atomic      Atomic             Coordinates (Angstroms)
 Number     Number       Type             X           Y           Z
 ---------------------------------------------------------------------
      1          6           0        0.000000    0.000000    0.000000
      2          6           0        0.000000    0.000000    1.391046
      3          6           0        1.205513    0.000000    2.085012
      4          1           0        1.201935    0.000000    3.170358
      5          6           0        2.442946    0.000000    1.398901
      6          6           0        2.442084    0.000000   -0.021108
      7          6           0        1.211891    0.000000   -0.730340
      8          6           0        1.236611    0.000000   -2.145034
      9          6           0        2.440453    0.000000   -2.842031
     10          6           0        3.645126    0.000000   -2.146642
     11          6           0        3.671604    0.000000   -0.732011
     12          6           0        4.884464    0.000000   -0.003530
     13          6           0        4.886120    0.000000    1.387486
     14          6           0        3.681420    0.000000    2.083107
     15          1           0        3.686569    0.000000    3.168435
     16          1           0        5.824519    0.000000    1.928694
     17          1           0        5.825902    0.000000   -0.543470
     18          1           0        4.582378    0.000000   -2.693855
     19          1           0        2.439795    0.000000   -3.925317
     20          1           0        0.298554    0.000000   -2.690894
     21          1           0       -0.937741    0.000000    1.933339
     22          1           0       -0.942495    0.000000   -0.538180
     23          0           0        1.217072    0.000000    0.687252
     24          0           0        1.217072   -1.000000    0.687252
     25          0           0        3.668106    0.000000    0.685474
     26          0           0        3.668106   -1.000000    0.685474
     27          0           0        2.441295    0.000000   -1.436194
     28          0           0        2.441295   -1.000000   -1.436194
     29          0           0        2.442131    0.000000   -0.021140
     30          0           0        2.442131   -1.000000   -0.021140
     31          1           0        3.671604   -1.000000   -0.732011
     32          1           0        2.442946   -1.000000    1.398901
     33          1           0        2.442084   -1.000000   -0.021108
     34          1           0        1.211891   -1.000000   -0.730340
     35          1           0       -0.075892   -0.996195   -0.042854
     36          1           0       -0.075449   -0.996195    1.434676
     37          1           0        1.204792   -0.996195    2.172164
     38          1           0        4.960299   -0.996195   -0.046486
     39          1           0        4.961632   -0.996195    1.431008
     40          1           0        3.682250   -0.996195    2.170259
     41          1           0        1.161494   -0.996195   -2.189233
     42          1           0        2.440401   -0.996195   -2.929187
     43          1           0        3.720186   -0.996195   -2.190938
 ---------------------------------------------------------------------
                    Distance matrix (angstroms):
                    1          2          3          4          5
     1  C    0.000000
     2  C    1.391046   0.000000
     3  C    2.408430   1.390989   0.000000
     4  H    3.390548   2.147230   1.085352   0.000000
     5  C    2.815122   2.442959   1.414916   2.162907   0.000000
     6  C    2.442175   2.820985   2.442304   3.423949   1.420010
     7  C    1.414947   2.443145   2.815359   3.900711   2.459506
     8  C    2.475960   3.746074   4.230160   5.315505   3.743624
     9  C    3.746058   4.886180   5.079451   6.138627   4.240933
    10  C    4.230250   5.079585   4.884527   5.851467   3.743810
    11  C    3.743864   4.241232   3.743958   4.618198   2.459754
    12  C    4.884466   5.079649   4.230448   4.861542   2.815639
    13  C    5.079300   4.886122   3.746120   4.092903   2.443201
    14  C    4.229916   3.745904   2.475907   2.707390   1.414904
    15  H    4.861046   4.092664   2.707295   2.484635   2.162833
    16  H    6.135542   5.849280   4.621650   4.786440   3.422822
    17  H    5.851196   6.138688   5.315724   5.930733   3.900923
    18  H    5.315547   6.138779   5.851562   6.768780   4.618205
    19  H    4.621765   5.849472   6.135756   7.202840   5.324219
    20  H    2.707405   4.092843   4.861260   5.930461   4.617883
    21  H    2.148758   1.083255   2.148614   2.471523   3.422670
    22  H    1.085327   2.147140   3.390438   4.283904   3.900448
    23  Bq   1.397705   1.405913   1.397808   2.483152   1.417467
    24  Bq   1.718598   1.725280   1.718681   2.676947   1.734708
    25  Bq   3.731606   3.735350   2.832503   3.500950   1.417743
    26  Bq   3.863273   3.866890   3.003843   3.640968   1.734934
    27  Bq   2.832415   3.735399   3.731762   4.770360   2.835096
    28  Bq   3.003760   3.866938   3.863424   4.874047   3.006288
    29  Bq   2.442223   2.821041   2.442355   3.423995   1.420041
    30  Bq   2.639025   2.993037   2.639147   3.567035   1.736812
    31  H    3.875115   4.357528   3.875206   4.725225   2.655257
    32  H    2.987459   2.639706   1.732625   2.382890   1.000000
    33  H    2.638981   2.992984   2.639100   3.566991   1.736787
    34  H    1.732650   2.639879   2.987682   4.026853   2.655027
    35  H    1.000000   1.747637   2.676232   3.598608   3.068487
    36  H    1.748254   1.000000   1.748200   2.374174   2.708505
    37  H    2.676234   1.747591   1.000000   1.410249   1.767304
    38  H    5.059558   5.259607   4.431039   5.046364   3.068976
    39  H    5.259085   5.060810   3.940629   4.260642   2.708729
    40  H    4.388780   3.893397   2.670935   2.853868   1.767278
    41  H    2.670995   3.893568   4.389021   5.451537   3.938176
    42  H    3.940570   5.060867   5.259233   6.303225   4.441256
    43  H    4.430846   5.259544   5.059618   6.006454   3.938362
                    6          7          8          9         10
     6  C    0.000000
     7  C    1.419995   0.000000
     8  C    2.442176   1.414910   0.000000
     9  C    2.820923   2.443073   1.391057   0.000000
    10  C    2.442376   2.815412   2.408516   1.390972   0.000000
    11  C    1.420247   2.459714   2.815284   2.442932   1.414878
    12  C    2.442444   3.743802   4.229997   3.745702   2.475659
    13  C    2.820896   4.240891   5.079135   4.885704   3.745681
    14  C    2.442064   3.743536   4.884083   5.079073   4.229904
    15  H    3.423730   4.617844   5.851089   6.138282   5.315238
    16  H    3.904176   5.324171   6.135483   5.849078   4.621484
    17  H    3.423900   4.617795   4.860720   4.092022   2.706648
    18  H    3.424096   3.900715   3.390481   2.147044   1.085303
    19  H    3.904210   3.422810   2.148735   1.083287   2.148607
    20  H    3.423810   2.162858   1.085317   2.147225   3.390539
    21  H    3.904239   3.422880   4.621789   5.849475   6.135871
    22  H    3.423849   2.162939   2.707487   4.092929   4.861421
    23  Bq   1.415072   1.417601   2.832353   3.735304   3.731809
    24  Bq   1.732751   1.734818   3.003702   3.866846   3.863470
    25  Bq   1.415058   2.835053   3.731480   3.735027   2.832209
    26  Bq   1.732741   3.006248   3.863152   3.866578   3.003566
    27  Bq   1.415086   1.417627   1.397754   1.405837   1.397836
    28  Bq   1.732763   1.734839   1.718638   1.725218   1.718705
    29  Bq   0.000000   1.420020   2.442172   2.820892   2.442326
    30  Bq   1.000000   1.736795   2.638978   2.992897   2.639120
    31  H    1.736981   2.655220   2.987612   2.639681   1.732594
    32  H    1.736787   2.655027   3.874883   4.357237   3.875063
    33  H    1.000000   1.736775   2.638982   2.992926   2.639167
    34  H    1.736775   1.000000   1.732619   2.639811   2.987732
    35  H    2.707966   1.767321   2.670997   3.893557   4.389112
    36  H    3.074034   2.708679   3.940587   5.060868   5.259365
    37  H    2.708088   3.068711   4.430758   5.259412   5.059616
    38  H    2.708220   3.938353   4.388868   3.893212   2.670718
    39  H    3.073950   4.441215   5.258922   5.060396   3.940199
    40  H    2.707860   3.938090   5.059180   5.259041   4.430509
    41  H    2.707966   1.767289   1.000000   1.747651   2.676312
    42  H    3.073976   2.708610   1.748259   1.000000   1.748183
    43  H    2.708156   3.068761   2.676314   1.747581   1.000000
                   11         12         13         14         15
    11  C    0.000000
    12  C    1.414820   0.000000
    13  C    2.442809   1.391017   0.000000
    14  C    2.815135   2.408603   1.391112   0.000000
    15  H    3.900475   3.390622   2.147255   1.085340   0.000000
    16  H    3.422629   2.148765   1.083281   2.148655   2.471394
    17  H    2.162533   1.085284   2.147506   3.390828   4.284273
    18  H    2.162947   2.707232   4.092628   4.861182   5.930339
    19  H    3.422654   4.621345   5.848964   6.135372   7.202483
    20  H    3.900601   5.315308   6.138318   5.851056   6.768336
    21  H    5.324486   6.135922   5.849386   4.621588   4.786408
    22  H    4.618169   5.851436   6.138481   5.315236   5.930196
    23  Bq   2.835319   3.731882   3.735270   2.832211   3.500669
    24  Bq   3.006498   3.863540   3.866813   3.003568   3.640698
    25  Bq   1.417490   1.397946   1.405837   1.397696   2.483029
    26  Bq   1.734727   1.718794   1.725218   1.718591   2.676833
    27  Bq   1.417581   2.832244   3.735016   3.731406   4.770044
    28  Bq   1.734801   3.003599   3.866567   3.863081   4.873738
    29  Bq   1.420191   2.442397   2.820870   2.442067   3.423742
    30  Bq   1.736935   2.639186   2.992876   2.638880   3.566793
    31  H    1.000000   1.732546   2.639568   2.987472   4.026624
    32  H    2.655257   2.987946   2.639930   1.732615   2.382823
    33  H    1.736981   2.639229   2.992900   2.638878   3.566781
    34  H    2.655220   3.875055   4.357196   3.874798   4.724879
    35  H    3.938409   5.059554   5.259263   4.430520   5.045879
    36  H    4.441547   5.259428   5.060811   3.940422   4.260411
    37  H    3.938502   4.389309   3.893623   2.670958   2.853800
    38  H    1.767225   1.000000   1.747622   2.676397   3.598682
    39  H    2.708362   1.748215   1.000000   1.748308   2.374204
    40  H    3.068499   2.676393   1.747696   1.000000   1.410240
    41  H    3.068640   4.430599   5.259103   5.059182   6.006081
    42  H    2.708477   3.940218   5.060396   5.258861   6.302883
    43  H    1.767267   2.670712   3.893190   4.388778   5.451277
                   16         17         18         19         20
    16  H    0.000000
    17  H    2.472165   0.000000
    18  H    4.786530   2.484050   0.000000
    19  H    6.762085   4.785667   2.471267   0.000000
    20  H    7.202560   5.929840   4.283825   2.471581   0.000000
    21  H    6.762261   7.202879   7.202960   6.762515   4.786643
    22  H    7.202634   6.768400   5.930527   4.786709   2.484830
    23  Bq   4.771765   4.770324   4.770447   4.771880   3.500792
    24  Bq   4.875422   4.874012   4.874132   4.875535   3.640816
    25  Bq   2.489118   2.483221   3.500822   4.771598   4.770088
    26  Bq   2.682482   2.677011   3.640845   4.875259   4.873781
    27  Bq   4.771653   3.500361   2.483132   2.489123   2.483064
    28  Bq   4.875313   3.640402   2.676929   2.682487   2.676865
    29  Bq   3.904151   3.423848   3.424042   3.904178   3.423815
    30  Bq   4.030186   3.566895   3.567080   4.030212   3.566863
    31  H    3.565725   2.382551   2.382927   3.565748   4.026746
    32  H    3.565910   4.027059   4.725232   5.417316   4.724917
    33  H    4.030210   3.566944   3.567132   4.030242   3.566858
    34  H    5.417269   4.724831   4.026857   3.565898   2.382846
    35  H    6.300338   6.006180   5.451576   4.732294   2.853896
    36  H    6.003838   6.303286   6.303374   6.004031   4.260588
    37  H    4.732183   5.451764   6.006549   6.300549   5.046088
    38  H    2.374998   1.410201   2.853732   4.731879   5.451345
    39  H    1.408783   2.374433   4.260367   6.003522   6.302917
    40  H    2.374884   3.598886   5.046012   6.300170   6.006047
    41  H    6.300280   5.045557   3.598540   2.374962   1.410224
    42  H    6.003637   4.259773   2.373995   1.408787   2.374172
    43  H    4.732018   2.853173   1.410214   2.374842   3.598600
                   21         22         23         24         25
    21  H    0.000000
    22  H    2.471524   0.000000
    23  Bq   2.489168   2.483025   0.000000
    24  Bq   2.682528   2.676829   1.000000   0.000000
    25  Bq   4.771897   4.770218   2.451035   2.647182   0.000000
    26  Bq   4.875551   4.873908   2.647182   2.451035   1.000000
    27  Bq   4.771964   3.500923   2.451070   2.647214   2.450825
    28  Bq   4.875617   3.640943   2.647214   2.451070   2.646988
    29  Bq   3.904296   3.423890   1.415128   1.732798   1.415033
    30  Bq   4.030326   3.566935   1.732798   1.415128   1.732720
    31  H    5.417578   4.725196   3.006498   2.835319   1.734727
    32  H    3.565764   4.026599   1.734708   1.417467   1.734934
    33  H    4.030271   3.566895   1.732751   1.415072   1.732741
    34  H    3.565965   2.382919   1.734818   1.417601   3.006248
    35  H    2.374980   1.410231   1.788076   1.484866   3.942130
    36  H    1.408764   2.374096   1.794898   1.493074   3.945620
    37  H    2.374845   3.598501   1.788161   1.484968   3.044761
    38  H    6.300713   6.006425   3.942400   3.814463   1.788276
    39  H    6.003944   6.303080   3.945542   3.817711   1.794835
    40  H    4.732109   5.451267   3.044473   2.876878   1.788069
    41  H    4.732314   2.853971   3.044611   2.877024   3.942011
    42  H    6.004032   4.260669   3.945575   3.817745   3.945306
    43  H    6.300663   5.046247   3.942329   3.814390   3.044481
                   26         27         28         29         30
    26  Bq   0.000000
    27  Bq   2.646988   0.000000
    28  Bq   2.450825   1.000000   0.000000
    29  Bq   1.732720   1.415055   1.732738   0.000000
    30  Bq   1.415033   1.732738   1.415055   1.000000   0.000000
    31  H    1.417490   1.734801   1.417581   1.736935   1.420191
    32  H    1.417743   3.006288   2.835096   1.736812   1.420041
    33  H    1.415058   1.732763   1.415086   1.000000   0.000000
    34  H    2.835053   1.734839   1.417627   1.736795   1.420020
    35  H    3.814184   3.044672   2.877089   2.708010   2.518120
    36  H    3.817791   3.945669   3.817841   3.074087   2.908199
    37  H    2.877182   3.942283   3.814342   2.708135   2.518254
    38  H    1.485107   3.044516   2.876923   2.708176   2.518298
    39  H    1.492998   3.945295   3.817455   3.073926   2.908029
    40  H    1.484857   3.941938   3.813986   2.707864   2.517963
    41  H    3.814061   1.788117   1.484915   2.707963   2.518070
    42  H    3.817466   1.794834   1.492997   3.073946   2.908050
    43  H    2.876886   1.788185   1.484997   2.708109   2.518226
                   31         32         33         34         35
    31  H    0.000000
    32  H    2.459754   0.000000
    33  H    1.420247   1.420010   0.000000
    34  H    2.459714   2.459506   1.419995   0.000000
    35  H    3.810338   2.902279   2.518073   1.459807   0.000000
    36  H    4.328389   2.518652   2.908143   2.518840   1.477530
    37  H    3.810434   1.459786   2.518204   2.902516   2.558605
    38  H    1.459690   2.902796   2.518346   3.810280   5.036192
    39  H    2.518499   2.518893   2.908054   4.328048   5.248706
    40  H    2.902292   1.459754   2.517959   3.810009   4.361365
    41  H    2.902441   3.810097   2.518073   1.459768   2.477512
    42  H    2.518622   4.328090   2.908081   2.518765   3.829183
    43  H    1.459741   3.810289   2.518277   2.902569   4.361705
                   36         37         38         39         40
    36  H    0.000000
    37  H    1.477466   0.000000
    38  H    5.249057   4.361908   0.000000
    39  H    5.037082   3.829250   1.477494   0.000000
    40  H    3.829019   2.477458   2.558782   1.477603   0.000000
    41  H    3.829196   4.361612   4.361454   5.248542   5.035810
    42  H    5.037142   5.248858   3.828818   5.036656   5.248479
    43  H    5.248992   5.036255   2.477207   3.828796   4.361362
                   41         42         43
    41  H    0.000000
    42  H    1.477543   0.000000
    43  H    2.558692   1.477450   0.000000
 Symmetry turned off:
 Cannot cope with ghost atoms or with translation vectors.
 Stoichiometry    C13H22
 Framework group  C1[X(C13H22)]
 NUMDOF-- NAT=    35 NAtoms=    43
 Deg. of freedom     0
 Full point group                 C1      NOp   1
 Rotational constants (GHZ):      1.0112114      1.0109874      0.5180646
 Standard basis: STO-3G (5D, 7F)
 Warning:  center  23 has no basis functions!
 Warning:  center  24 has no basis functions!
 Warning:  center  25 has no basis functions!
 Warning:  center  26 has no basis functions!
 Warning:  center  27 has no basis functions!
 Warning:  center  28 has no basis functions!
 Warning:  center  29 has no basis functions!
 Warning:  center  30 has no basis functions!
    87 basis functions,   261 primitive gaussians,    87 cartesian basis functions
    50 alpha electrons       50 beta electrons
       nuclear repulsion energy       943.7993006923 Hartrees.
 NAtoms=   43 NActive=   43 NUniq=   43 SFac= 1.00D+00 NAtFMM=   60 NAOKFM=F Big=F
 Integral buffers will be    131072 words long.
 Raffenetti 1 integral format.
 Two-electron integral symmetry is turned off.
 One-electron integrals computed using PRISM.
 NBasis=    87 RedAO= T EigKep=  1.16D-01  NBF=    87
 NBsUse=    87 1.00D-06 EigRej= -1.00D+00 NBFU=    87
 ExpMin= 1.69D-01 ExpMax= 7.16D+01 ExpMxC= 7.16D+01 IAcc=1 IRadAn=         1 AccDes= 0.00D+00
 Harris functional with IExCor=  205 and IRadAn=       1 diagonalized for initial guess.
 HarFok:  IExCor=  205 AccDes= 0.00D+00 IRadAn=         1 IDoV= 1 UseB2=F ITyADJ=14
 ICtDFT=  3500011 ScaDFX=  1.000000  1.000000  1.000000  1.000000
 FoFCou: FMM=F IPFlag=           0 FMFlag=      100000 FMFlg1=           0
         NFxFlg=           0 DoJE=T BraDBF=F KetDBF=T FulRan=T
         wScrn=  0.000000 ICntrl=     500 IOpCl=  0 I1Cent=   200000004 NGrid=           0
         NMat0=    1 NMatS0=      1 NMatT0=    0 NMatD0=    1 NMtDS0=    0 NMtDT0=    0
 Symmetry not used in FoFCou.

 **********************************************************************

            Population analysis using the SCF density.

 **********************************************************************

 Alpha  occ. eigenvalues --   -9.85742  -9.85741  -9.85740  -9.85447  -9.85446
 Alpha  occ. eigenvalues --   -9.85434  -9.85414  -9.85387  -9.85386  -9.85268
 Alpha  occ. eigenvalues --   -9.85168  -9.85168  -9.85032  -1.08640  -1.02566
 Alpha  occ. eigenvalues --   -1.02563  -0.95615  -0.95615  -0.95394  -0.86986
 Alpha  occ. eigenvalues --   -0.81600  -0.80571  -0.80570  -0.70079  -0.70078
 Alpha  occ. eigenvalues --   -0.68904  -0.67638  -0.67637  -0.62328  -0.62325
 Alpha  occ. eigenvalues --   -0.61302  -0.59560  -0.58442  -0.58441  -0.57356
 Alpha  occ. eigenvalues --   -0.55812  -0.55811  -0.55772  -0.53456  -0.53451
 Alpha  occ. eigenvalues --   -0.52982  -0.48655  -0.48653  -0.46910  -0.41166
 Alpha  occ. eigenvalues --   -0.40175  -0.40175  -0.32795  -0.32793  -0.27145
 Alpha virt. eigenvalues --   -0.03440   0.02769   0.02772   0.07780   0.08379
 Alpha virt. eigenvalues --    0.08383   0.10160   0.10165   0.10808   0.10809
 Alpha virt. eigenvalues --    0.11205   0.12264   0.12825   0.15405   0.15409
 Alpha virt. eigenvalues --    0.16792   0.21576   0.21578   0.24270   0.25304
 Alpha virt. eigenvalues --    0.25308   0.33649   0.33655   0.34808   0.35173
 Alpha virt. eigenvalues --    0.39315   0.39316   0.41433   0.42698   0.46896
 Alpha virt. eigenvalues --    0.46898   0.51704   0.53404   0.53405   0.65047
 Alpha virt. eigenvalues --    0.65048   0.76244
     Molecular Orbital Coefficients:
                           1         2         3         4         5
                           O         O         O         O         O
     Eigenvalues --    -9.85742  -9.85741  -9.85740  -9.85447  -9.85446
   1 1   C  1S         -0.14263   0.12962   0.04628  -0.13800  -0.49944
   2        2S         -0.01839   0.01674   0.00592  -0.01007  -0.03513
   3        2PX        -0.00058   0.00026   0.00019  -0.00124  -0.00226
   4        2PY         0.00134  -0.00125  -0.00043   0.00112   0.00418
   5        2PZ        -0.00575   0.00595   0.00183   0.00118   0.00074
   6 2   C  1S          0.65968  -0.64297  -0.21088  -0.06300   0.00495
   7        2S          0.04650  -0.04518  -0.01478  -0.00085   0.00006
   8        2PX         0.00217  -0.00206  -0.00063   0.00083  -0.00391
   9        2PY        -0.00554   0.00540   0.00177   0.00048  -0.00004
  10        2PZ        -0.00126   0.00115   0.00042  -0.00082  -0.00659
  11 3   C  1S         -0.14093   0.13503   0.03756  -0.09927   0.51852
  12        2S         -0.01817   0.01737   0.00488  -0.00731   0.03642
  13        2PX         0.00479  -0.00480  -0.00188  -0.00148   0.00195
  14        2PY         0.00133  -0.00129  -0.00038   0.00079  -0.00434
  15        2PZ         0.00335  -0.00324  -0.00100   0.00036  -0.00163
  16 4   H  1S          0.00187  -0.00180  -0.00053   0.00122  -0.00613
  17 5   C  1S          0.02844  -0.01598   0.01886   0.12468  -0.26676
  18        2S          0.00517  -0.00295   0.00345   0.01334  -0.02845
  19        2PX        -0.00063   0.00126   0.00202   0.00150   0.00089
  20        2PY        -0.00021   0.00012  -0.00014  -0.00115   0.00245
  21        2PZ         0.00057  -0.00045   0.00045   0.00189  -0.00371
  22 6   C  1S         -0.01823  -0.00108  -0.00505   0.00910   0.00026
  23        2S         -0.00291  -0.00017  -0.00081   0.00114   0.00003
  24        2PX         0.00017  -0.00034  -0.00056   0.00357   0.00187
  25        2PY         0.00011   0.00001   0.00003  -0.00008   0.00000
  26        2PZ         0.00006   0.00058  -0.00034  -0.00187   0.00359
  27 7   C  1S          0.03565   0.00152  -0.01163   0.14679   0.25273
  28        2S          0.00651   0.00028  -0.00216   0.01571   0.02697
  29        2PX        -0.00073   0.00120   0.00029  -0.00116  -0.00351
  30        2PY        -0.00027  -0.00001   0.00009  -0.00135  -0.00232
  31        2PZ        -0.00028  -0.00214   0.00025  -0.00240  -0.00096
  32 8   C  1S         -0.12912  -0.14085   0.05384  -0.37229  -0.35428
  33        2S         -0.01663  -0.01818   0.00689  -0.02603  -0.02522
  34        2PX        -0.00471  -0.00568   0.00198  -0.00066   0.00018
  35        2PY         0.00121   0.00136  -0.00051   0.00314   0.00293
  36        2PZ         0.00209   0.00293  -0.00091  -0.00117  -0.00264
  37 9   C  1S          0.59174   0.69356  -0.24778   0.04183  -0.06152
  38        2S          0.04174   0.04876  -0.01738   0.00056  -0.00082
  39        2PX        -0.00001   0.00004   0.00005  -0.00680  -0.00358
  40        2PY        -0.00497  -0.00583   0.00208  -0.00032   0.00047
  41        2PZ         0.00226   0.00256  -0.00089  -0.00074   0.00111
  42 10  C  1S         -0.12722  -0.14695   0.04552   0.53055   0.12185
  43        2S         -0.01637  -0.01886   0.00589   0.03741   0.00820
  44        2PX         0.00475   0.00561  -0.00211  -0.00015  -0.00061
  45        2PY         0.00120   0.00140  -0.00046  -0.00441  -0.00106
  46        2PZ         0.00219   0.00270  -0.00127   0.00310  -0.00041
  47 11  C  1S          0.02672   0.01985   0.01800  -0.31226   0.01292
  48        2S          0.00486   0.00365   0.00329  -0.03339   0.00138
  49        2PX         0.00020  -0.00014   0.00143  -0.00363   0.00109
  50        2PY        -0.00020  -0.00015  -0.00014   0.00287  -0.00012
  51        2PZ        -0.00070  -0.00131   0.00160   0.00219   0.00151
  52 12  C  1S         -0.07189  -0.01403  -0.18673   0.51844  -0.16571
  53        2S         -0.00923  -0.00175  -0.02394   0.03657  -0.01129
  54        2PX         0.00036   0.00019   0.00053  -0.00276   0.00018
  55        2PY         0.00067   0.00011   0.00178  -0.00431   0.00142
  56        2PZ        -0.00269  -0.00018  -0.00803  -0.00148  -0.00061
  57 13  C  1S          0.31852   0.04068   0.88823   0.04851   0.05727
  58        2S          0.02254   0.00287   0.06249   0.00066   0.00078
  59        2PX        -0.00109  -0.00010  -0.00286  -0.00247   0.00294
  60        2PY        -0.00267  -0.00034  -0.00746  -0.00037  -0.00043
  61        2PZ        -0.00063  -0.00013  -0.00166   0.00600  -0.00305
  62 14  C  1S         -0.07177  -0.00358  -0.18533  -0.33576   0.38055
  63        2S         -0.00925  -0.00051  -0.02387  -0.02349   0.02712
  64        2PX        -0.00213  -0.00052  -0.00667   0.00047  -0.00244
  65        2PY         0.00066   0.00005   0.00177   0.00284  -0.00315
  66        2PZ         0.00166   0.00017   0.00448   0.00105  -0.00126
  67 15  H  1S          0.00094   0.00007   0.00248   0.00394  -0.00454
  68 16  H  1S         -0.00378  -0.00048  -0.01054  -0.00051  -0.00060
  69 17  H  1S          0.00094   0.00016   0.00250  -0.00616   0.00192
  70 18  H  1S          0.00169   0.00196  -0.00064  -0.00630  -0.00139
  71 19  H  1S         -0.00702  -0.00823   0.00294  -0.00044   0.00065
  72 20  H  1S          0.00170   0.00190  -0.00071   0.00437   0.00423
  73 21  H  1S         -0.00783   0.00763   0.00250   0.00066  -0.00005
  74 22  H  1S          0.00189  -0.00175  -0.00061   0.00168   0.00590
  75 23  H  1S         -0.00044  -0.00035  -0.00031   0.00570  -0.00024
  76 24  H  1S         -0.00047   0.00028  -0.00032  -0.00228   0.00487
  77 25  H  1S          0.00028   0.00002   0.00008  -0.00017   0.00000
  78 26  H  1S         -0.00060  -0.00003   0.00021  -0.00269  -0.00461
  79 27  H  1S          0.00272  -0.00259  -0.00088   0.00207   0.00770
  80 28  H  1S         -0.01014   0.00990   0.00325   0.00079  -0.00006
  81 29  H  1S          0.00271  -0.00263  -0.00081   0.00147  -0.00799
  82 30  H  1S          0.00134   0.00021   0.00365  -0.00794   0.00260
  83 31  H  1S         -0.00489  -0.00063  -0.01368  -0.00060  -0.00072
  84 32  H  1S          0.00133   0.00013   0.00363   0.00522  -0.00582
  85 33  H  1S          0.00245   0.00280  -0.00103   0.00578   0.00541
  86 34  H  1S         -0.00910  -0.01068   0.00382  -0.00052   0.00077
  87 35  H  1S          0.00244   0.00285  -0.00097  -0.00814  -0.00193
                           6         7         8         9        10
                           O         O         O         O         O
     Eigenvalues --    -9.85434  -9.85414  -9.85387  -9.85386  -9.85268
   1 1   C  1S          0.32213   0.40156  -0.22730   0.50304  -0.19539
   2        2S          0.02259   0.02561  -0.01328   0.03034  -0.00768
   3        2PX         0.00262   0.00038   0.00036   0.00099   0.00229
   4        2PY        -0.00261  -0.00338   0.00190  -0.00411   0.00156
   5        2PZ        -0.00237   0.00041  -0.00051  -0.00146  -0.00091
   6 2   C  1S          0.16273   0.00197  -0.01567   0.21338  -0.05959
   7        2S          0.00169   0.00001  -0.00003   0.00042   0.00089
   8        2PX        -0.00261   0.00296  -0.00116  -0.00376   0.00117
   9        2PY        -0.00121  -0.00001   0.00011  -0.00150   0.00034
  10        2PZ         0.00143   0.00520  -0.00263   0.00201  -0.00069
  11 3   C  1S          0.33124  -0.39317   0.15234   0.52207  -0.19442
  12        2S          0.02315  -0.02498   0.00872   0.03135  -0.00762
  13        2PX         0.00334   0.00027  -0.00090   0.00162   0.00193
  14        2PY        -0.00268   0.00331  -0.00129  -0.00427   0.00155
  15        2PZ        -0.00109   0.00050   0.00009  -0.00009  -0.00154
  16 4   H  1S         -0.00399   0.00455  -0.00172  -0.00611   0.00218
  17 5   C  1S         -0.29267  -0.00162   0.09244  -0.03897  -0.30480
  18        2S         -0.03024  -0.00018   0.00844  -0.00352  -0.02387
  19        2PX         0.00003  -0.00589   0.00386   0.00749   0.00002
  20        2PY         0.00260   0.00001  -0.00084   0.00035   0.00254
  21        2PZ        -0.00063   0.00003   0.00075  -0.00032   0.00750
  22 6   C  1S          0.20235   0.00337  -0.00121  -0.00045   0.67669
  23        2S          0.02467   0.00039  -0.00013  -0.00005   0.05557
  24        2PX        -0.00021  -0.00005  -0.00063  -0.00127   0.00000
  25        2PY        -0.00170  -0.00003   0.00001   0.00000  -0.00592
  26        2PZ         0.00010  -0.00004  -0.00132   0.00058   0.00000
  27 7   C  1S         -0.29458  -0.00854  -0.08164  -0.05579  -0.30429
  28        2S         -0.03045  -0.00084  -0.00744  -0.00507  -0.02385
  29        2PX         0.00049   0.00297  -0.00183   0.00385  -0.00650
  30        2PY         0.00261   0.00008   0.00074   0.00050   0.00253
  31        2PZ         0.00047  -0.00506   0.00456  -0.00575  -0.00374
  32 8   C  1S          0.34535  -0.38236   0.39986  -0.38615  -0.19459
  33        2S          0.02412  -0.02430   0.02431  -0.02285  -0.00764
  34        2PX        -0.00068  -0.00060  -0.00079   0.00006   0.00036
  35        2PY        -0.00281   0.00322  -0.00325   0.00320   0.00155
  36        2PZ         0.00343   0.00008   0.00169  -0.00005   0.00244
  37 9   C  1S          0.15790   0.00956   0.19344  -0.09385  -0.05921
  38        2S          0.00165   0.00007   0.00043  -0.00019   0.00088
  39        2PX         0.00043  -0.00608  -0.00095  -0.00242  -0.00001
  40        2PY        -0.00118  -0.00007  -0.00136   0.00066   0.00034
  41        2PZ        -0.00288  -0.00017  -0.00384   0.00187   0.00134
  42 10  C  1S          0.28825   0.42423   0.52560  -0.06431  -0.19258
  43        2S          0.02013   0.02690   0.03140  -0.00424  -0.00750
  44        2PX         0.00074  -0.00053   0.00057  -0.00060  -0.00036
  45        2PY        -0.00233  -0.00356  -0.00431   0.00049   0.00154
  46        2PZ         0.00318   0.00012   0.00108  -0.00127   0.00245
  47 11  C  1S         -0.26762  -0.00285  -0.00674   0.09635  -0.30534
  48        2S         -0.02768  -0.00028  -0.00061   0.00876  -0.02397
  49        2PX        -0.00031   0.00319   0.00397   0.00096   0.00647
  50        2PY         0.00237   0.00002   0.00006  -0.00087   0.00254
  51        2PZ         0.00011   0.00547   0.00701   0.00009  -0.00374
  52 12  C  1S          0.29675  -0.42029  -0.51000  -0.13601  -0.19254
  53        2S          0.02069  -0.02661  -0.03039  -0.00850  -0.00749
  54        2PX        -0.00240   0.00032   0.00054   0.00089  -0.00230
  55        2PY        -0.00240   0.00353   0.00419   0.00107   0.00154
  56        2PZ        -0.00221  -0.00045   0.00088   0.00130  -0.00090
  57 13  C  1S          0.15682  -0.00574  -0.17974  -0.12109  -0.05968
  58        2S          0.00168  -0.00004  -0.00045  -0.00028   0.00087
  59        2PX         0.00258   0.00298  -0.00246  -0.00324  -0.00119
  60        2PY        -0.00117   0.00004   0.00126   0.00085   0.00035
  61        2PZ         0.00121  -0.00537  -0.00285   0.00080  -0.00065
  62 14  C  1S          0.32909   0.39493  -0.34596  -0.44246  -0.19637
  63        2S          0.02307   0.02519  -0.02117  -0.02634  -0.00774
  64        2PX        -0.00330   0.00027   0.00187   0.00038  -0.00193
  65        2PY        -0.00267  -0.00332   0.00281   0.00365   0.00157
  66        2PZ        -0.00110  -0.00053   0.00017   0.00002  -0.00153
  67 15  H  1S         -0.00396  -0.00457   0.00409   0.00513   0.00220
  68 16  H  1S         -0.00163   0.00006   0.00184   0.00124   0.00060
  69 17  H  1S         -0.00358   0.00487   0.00594   0.00164   0.00216
  70 18  H  1S         -0.00348  -0.00491  -0.00613   0.00081   0.00216
  71 19  H  1S         -0.00164  -0.00010  -0.00198   0.00096   0.00060
  72 20  H  1S         -0.00415   0.00442  -0.00471   0.00446   0.00218
  73 21  H  1S         -0.00169  -0.00002   0.00016  -0.00218   0.00060
  74 22  H  1S         -0.00388  -0.00465   0.00260  -0.00589   0.00219
  75 23  H  1S          0.00471   0.00005   0.00012  -0.00172   0.00499
  76 24  H  1S          0.00516   0.00003  -0.00165   0.00069   0.00498
  77 25  H  1S         -0.00372  -0.00006   0.00002   0.00001  -0.01153
  78 26  H  1S          0.00520   0.00015   0.00145   0.00099   0.00497
  79 27  H  1S         -0.00482  -0.00615   0.00341  -0.00742   0.00255
  80 28  H  1S         -0.00192  -0.00002   0.00016  -0.00221   0.00048
  81 29  H  1S         -0.00496   0.00603  -0.00230  -0.00770   0.00254
  82 30  H  1S         -0.00444   0.00643   0.00754   0.00196   0.00251
  83 31  H  1S         -0.00185   0.00006   0.00187   0.00126   0.00048
  84 32  H  1S         -0.00494  -0.00606   0.00508   0.00657   0.00257
  85 33  H  1S         -0.00519   0.00587  -0.00588   0.00574   0.00254
  86 34  H  1S         -0.00186  -0.00010  -0.00201   0.00097   0.00047
  87 35  H  1S         -0.00430  -0.00649  -0.00776   0.00090   0.00251
                          11        12        13        14        15
                           O         O         O         O         O
     Eigenvalues --    -9.85168  -9.85168  -9.85032  -1.08640  -1.02566
   1 1   C  1S         -0.16049  -0.15715   0.09389  -0.05249  -0.08793
   2        2S         -0.00329  -0.00373   0.00097   0.12083   0.20883
   3        2PX         0.00395   0.00332  -0.00275   0.03222   0.02726
   4        2PY         0.00121   0.00118  -0.00063  -0.03219  -0.05798
   5        2PZ        -0.00281  -0.00194   0.00160   0.00393   0.03991
   6 2   C  1S          0.00590  -0.03512   0.02655  -0.04370  -0.10352
   7        2S         -0.00013   0.00078  -0.00061   0.10041   0.24685
   8        2PX        -0.00152   0.00050  -0.00068   0.02377   0.04577
   9        2PY        -0.00003   0.00017  -0.00012  -0.02649  -0.06801
  10        2PZ        -0.00235  -0.00084   0.00040  -0.01374  -0.02473
  11 3   C  1S          0.20266  -0.09506   0.09351  -0.05249  -0.09231
  12        2S          0.00430  -0.00241   0.00096   0.12082   0.21938
  13        2PX        -0.00526   0.00169  -0.00275   0.01267  -0.01775
  14        2PY        -0.00153   0.00071  -0.00063  -0.03219  -0.06094
  15        2PZ         0.00254  -0.00113   0.00158  -0.02989  -0.04500
  16 4   H  1S         -0.00214   0.00108  -0.00111   0.00957   0.02096
  17 5   C  1S          0.69459  -0.25816   0.38547  -0.09134  -0.05417
  18        2S          0.04038  -0.01499   0.01469   0.20841   0.12756
  19        2PX        -0.00006  -0.00011   0.00000  -0.00002  -0.05110
  20        2PY        -0.00581   0.00216  -0.00303  -0.06028  -0.03829
  21        2PZ        -0.00178   0.00065   0.00507  -0.02899   0.01351
  22 6   C  1S          0.00113  -0.00199   0.68931  -0.11735  -0.00003
  23        2S          0.00008  -0.00013   0.03084   0.26614   0.00007
  24        2PX        -0.00335  -0.00902  -0.00002  -0.00005  -0.06646
  25        2PY        -0.00001   0.00002  -0.00557  -0.07880  -0.00001
  26        2PZ        -0.00901   0.00336   0.00002   0.00002   0.04336
  27 7   C  1S         -0.57043  -0.47311   0.38621  -0.09136  -0.04489
  28        2S         -0.03319  -0.02749   0.01473   0.20844   0.10572
  29        2PX        -0.00124  -0.00109  -0.00439   0.02512  -0.03683
  30        2PY         0.00477   0.00396  -0.00304  -0.06031  -0.03174
  31        2PZ        -0.00081  -0.00051  -0.00253   0.01448   0.04154
  32 8   C  1S         -0.18399  -0.12827   0.09381  -0.05249   0.01540
  33        2S         -0.00426  -0.00252   0.00096   0.12082  -0.03536
  34        2PX        -0.00010  -0.00044   0.00000   0.01955  -0.02914
  35        2PY         0.00139   0.00097  -0.00063  -0.03218   0.00960
  36        2PZ         0.00467   0.00403  -0.00318   0.02593   0.02453
  37 9   C  1S         -0.03336   0.01212   0.02659  -0.04369   0.05661
  38        2S          0.00074  -0.00027  -0.00061   0.10039  -0.13499
  39        2PX        -0.00099  -0.00264   0.00000   0.00003  -0.02302
  40        2PY         0.00016  -0.00006  -0.00012  -0.02649   0.03719
  41        2PZ         0.00081  -0.00029  -0.00078   0.02744  -0.02842
  42 10  C  1S         -0.05542   0.21532   0.09374  -0.05250   0.08319
  43        2S         -0.00156   0.00456   0.00093   0.12083  -0.19886
  44        2PX        -0.00021  -0.00041  -0.00001  -0.01952   0.02334
  45        2PY         0.00041  -0.00162  -0.00063  -0.03218   0.05543
  46        2PZ         0.00091  -0.00611  -0.00320   0.02594  -0.03043
  47 11  C  1S         -0.12425   0.73132   0.38843  -0.09133   0.09907
  48        2S         -0.00725   0.04262   0.01489   0.20837  -0.23331
  49        2PX         0.00022  -0.00163   0.00439  -0.02504  -0.01978
  50        2PY         0.00104  -0.00612  -0.00306  -0.06029   0.07004
  51        2PZ        -0.00027   0.00092  -0.00254   0.01447   0.01523
  52 12  C  1S         -0.01884   0.22130   0.09367  -0.05249   0.07696
  53        2S         -0.00004   0.00481   0.00093   0.12083  -0.18413
  54        2PX        -0.00084   0.00510   0.00277  -0.03223   0.03680
  55        2PY         0.00015  -0.00167  -0.00063  -0.03219   0.05137
  56        2PZ        -0.00087   0.00330   0.00160   0.00396  -0.00034
  57 13  C  1S          0.02768   0.02245   0.02665  -0.04368   0.04694
  58        2S         -0.00061  -0.00049  -0.00060   0.10037  -0.11193
  59        2PX         0.00149  -0.00062   0.00068  -0.02376   0.00821
  60        2PY        -0.00014  -0.00011  -0.00012  -0.02648   0.03084
  61        2PZ        -0.00124   0.00215   0.00039  -0.01371   0.03298
  62 14  C  1S          0.21700  -0.06064   0.09393  -0.05248   0.00479
  63        2S          0.00492  -0.00099   0.00098   0.12079  -0.01008
  64        2PX         0.00509  -0.00215   0.00275  -0.01272  -0.03563
  65        2PY        -0.00164   0.00046  -0.00063  -0.03218   0.00256
  66        2PZ         0.00265  -0.00079   0.00158  -0.02985   0.00816
  67 15  H  1S         -0.00235   0.00059  -0.00112   0.00957  -0.00021
  68 16  H  1S         -0.00031  -0.00025  -0.00038   0.00773  -0.01060
  69 17  H  1S          0.00013  -0.00238  -0.00111   0.00958  -0.01831
  70 18  H  1S          0.00066  -0.00229  -0.00112   0.00958  -0.01967
  71 19  H  1S          0.00037  -0.00014  -0.00038   0.00773  -0.01278
  72 20  H  1S          0.00201   0.00132  -0.00112   0.00958  -0.00267
  73 21  H  1S         -0.00007   0.00039  -0.00038   0.00773   0.02337
  74 22  H  1S          0.00167   0.00173  -0.00112   0.00957   0.01987
  75 23  H  1S          0.00188  -0.01108  -0.00503   0.04738  -0.06279
  76 24  H  1S         -0.01052   0.00391  -0.00498   0.04737   0.03432
  77 25  H  1S         -0.00002   0.00003  -0.00940   0.06309   0.00001
  78 26  H  1S          0.00864   0.00716  -0.00499   0.04739   0.02845
  79 27  H  1S          0.00178   0.00172  -0.00083   0.02244   0.04730
  80 28  H  1S         -0.00003   0.00019  -0.00010   0.01839   0.05471
  81 29  H  1S         -0.00224   0.00103  -0.00082   0.02243   0.04966
  82 30  H  1S          0.00022  -0.00243  -0.00082   0.02244  -0.04153
  83 31  H  1S         -0.00015  -0.00012  -0.00010   0.01838  -0.02481
  84 32  H  1S         -0.00239   0.00068  -0.00083   0.02243  -0.00245
  85 33  H  1S          0.00202   0.00143  -0.00082   0.02243  -0.00816
  86 34  H  1S          0.00018  -0.00006  -0.00010   0.01838  -0.02991
  87 35  H  1S          0.00060  -0.00237  -0.00082   0.02243  -0.04486
                          16        17        18        19        20
                           O         O         O         O         O
     Eigenvalues --    -1.02563  -0.95615  -0.95615  -0.95394  -0.86986
   1 1   C  1S          0.04524   0.09145  -0.03727   0.04875  -0.09576
   2        2S         -0.10893  -0.22840   0.09389  -0.12262   0.25580
   3        2PX        -0.02815  -0.01170   0.04058   0.02075  -0.00189
   4        2PY         0.03051   0.06627  -0.02834   0.03532  -0.07690
   5        2PZ         0.01729  -0.03664  -0.06794  -0.05419   0.01231
   6 2   C  1S          0.00557   0.07191   0.06479   0.09082   0.00000
   7        2S         -0.01329  -0.17964  -0.16184  -0.22821   0.00001
   8        2PX         0.01128   0.00769  -0.04641  -0.01959  -0.06568
   9        2PY         0.00366   0.05161   0.04650   0.06626  -0.00001
  10        2PZ         0.02511   0.05649  -0.04142   0.01172  -0.11360
  11 3   C  1S         -0.03553  -0.02703   0.09539   0.04795   0.09575
  12        2S          0.08587   0.06832  -0.23833  -0.12059  -0.25577
  13        2PX         0.03111   0.08120   0.01726   0.05771   0.01160
  14        2PY        -0.02411  -0.02091   0.06927   0.03473   0.07689
  15        2PZ        -0.01100   0.00187   0.02846   0.00887   0.00451
  16 4   H  1S          0.00903   0.01032  -0.02915  -0.01586  -0.04272
  17 5   C  1S         -0.08312  -0.10215   0.03303  -0.03966   0.00001
  18        2S          0.19574   0.25305  -0.08182   0.09773  -0.00002
  19        2PX         0.03333   0.02362   0.07149  -0.00116   0.11373
  20        2PY        -0.05875  -0.07987   0.02581  -0.03221   0.00001
  21        2PZ         0.02067   0.03531  -0.01309  -0.08972  -0.00013
  22 6   C  1S          0.00000  -0.00102  -0.00171  -0.12948  -0.00001
  23        2S          0.00001   0.00252   0.00421   0.32013   0.00002
  24        2PX         0.04339  -0.02087  -0.06362   0.00095   0.00000
  25        2PY         0.00001  -0.00080  -0.00137  -0.10369  -0.00001
  26        2PZ         0.06647   0.06364  -0.02093  -0.00020   0.00003
  27 7   C  1S          0.08846   0.02158  -0.10547  -0.03881   0.00000
  28        2S         -0.20833  -0.05347   0.26127   0.09560   0.00000
  29        2PX         0.00528   0.04412  -0.02347   0.07762  -0.05682
  30        2PY         0.06253   0.01688  -0.08248  -0.03156  -0.00001
  31        2PZ         0.03493  -0.05963  -0.03127   0.04564   0.09856
  32 8   C  1S          0.09772  -0.06794  -0.07050   0.05042   0.09575
  33        2S         -0.23295   0.16935   0.17681  -0.12679  -0.25578
  34        2PX        -0.03841   0.04906  -0.02041  -0.03738  -0.00971
  35        2PY         0.06482  -0.04870  -0.05230   0.03652   0.07688
  36        2PZ        -0.02240  -0.03428   0.06032   0.04556   0.00779
  37 9   C  1S          0.08688  -0.08996   0.03107   0.09249  -0.00001
  38        2S         -0.20718   0.22469  -0.07763  -0.23237   0.00002
  39        2PX         0.01493  -0.02473  -0.07528   0.00117   0.13122
  40        2PY         0.05707  -0.06454   0.02231   0.06746  -0.00001
  41        2PZ        -0.04364   0.02711  -0.00925  -0.02330  -0.00009
  42 10  C  1S          0.05356  -0.01234   0.09848   0.04774  -0.09572
  43        2S         -0.12645   0.03011  -0.24638  -0.12006   0.25571
  44        2PX         0.04221  -0.05134   0.01377   0.03756  -0.00974
  45        2PY         0.03496  -0.00779   0.07202   0.03454  -0.07686
  46        2PZ         0.01336  -0.06293  -0.02687   0.04690  -0.00782
  47 11  C  1S         -0.00537   0.07964   0.07088  -0.04156   0.00002
  48        2S          0.01264  -0.19730  -0.17562   0.10245  -0.00005
  49        2PX         0.03167  -0.05025   0.00521  -0.07721  -0.05694
  50        2PY        -0.00380   0.06227   0.05540  -0.03372   0.00003
  51        2PZ         0.05208  -0.02890   0.06188   0.04422  -0.09842
  52 12  C  1S         -0.06221   0.09616  -0.02299   0.04850   0.09569
  53        2S          0.14715  -0.24064   0.05676  -0.12197  -0.25563
  54        2PX        -0.01355   0.03338   0.02518  -0.02183  -0.00185
  55        2PY        -0.04075   0.07048  -0.01560   0.03510   0.07685
  56        2PZ         0.04351   0.01038   0.07486  -0.05639  -0.01225
  57 13  C  1S         -0.09245   0.02016  -0.09225   0.09325  -0.00003
  58        2S          0.22047  -0.05036   0.23042  -0.23428   0.00010
  59        2PX        -0.04642  -0.03350  -0.03216   0.02080  -0.06548
  60        2PY        -0.06074   0.01448  -0.06618   0.06801  -0.00002
  61        2PZ        -0.01245   0.07021   0.00009   0.01104   0.11361
  62 14  C  1S         -0.09879  -0.07802  -0.05925   0.05034  -0.09571
  63        2S          0.23536   0.19555   0.14756  -0.12657   0.25567
  64        2PX         0.00359  -0.05561   0.06046  -0.05890   0.01161
  65        2PY        -0.06548  -0.05769  -0.04227   0.03646  -0.07685
  66        2PZ        -0.04558  -0.01524  -0.02379   0.00974  -0.00453
  67 15  H  1S          0.02283   0.02550   0.01686  -0.01658   0.04270
  68 16  H  1S          0.02087  -0.00624   0.02853  -0.02945   0.00002
  69 17  H  1S          0.01365  -0.03043   0.00521  -0.01599  -0.04270
  70 18  H  1S         -0.01160   0.00186  -0.03094  -0.01576   0.04272
  71 19  H  1S         -0.01961   0.02782  -0.00961  -0.02921   0.00001
  72 20  H  1S         -0.02268   0.01971   0.02332  -0.01663  -0.04273
  73 21  H  1S         -0.00126  -0.02225  -0.02004  -0.02869   0.00000
  74 22  H  1S         -0.01123  -0.02771   0.01343  -0.01613   0.04273
  75 23  H  1S          0.00341  -0.06127  -0.05452   0.03253  -0.00003
  76 24  H  1S          0.05267   0.07858  -0.02540   0.03104  -0.00001
  77 25  H  1S         -0.00001   0.00079   0.00135   0.10292   0.00001
  78 26  H  1S         -0.05606  -0.01661   0.08114   0.03039   0.00001
  79 27  H  1S         -0.02448  -0.06161   0.02606  -0.03319   0.08183
  80 28  H  1S         -0.00295  -0.04774  -0.04300  -0.06108   0.00001
  81 29  H  1S          0.01926   0.01917  -0.06437  -0.03264  -0.08181
  82 30  H  1S          0.03341  -0.06535   0.01472  -0.03300  -0.08177
  83 31  H  1S          0.04887  -0.01339   0.06123  -0.06270   0.00002
  84 32  H  1S          0.05321   0.05339   0.03943  -0.03426   0.08178
  85 33  H  1S         -0.05264   0.04538   0.04837  -0.03431  -0.08181
  86 34  H  1S         -0.04591   0.05970  -0.02063  -0.06219   0.00001
  87 35  H  1S         -0.02873   0.00748  -0.06682  -0.03247   0.08179
                          21        22        23        24        25
                           O         O         O         O         O
     Eigenvalues --    -0.81600  -0.80571  -0.80570  -0.70079  -0.70078
   1 1   C  1S          0.03520  -0.08278   0.01093  -0.05901  -0.05408
   2        2S         -0.09963   0.23281  -0.02863   0.18679   0.17073
   3        2PX        -0.02941  -0.05771  -0.08911  -0.09466   0.04544
   4        2PY         0.03252  -0.06958   0.00273  -0.05147  -0.06064
   5        2PZ         0.12150   0.03842   0.08335  -0.06429  -0.12405
   6 2   C  1S         -0.07164   0.00852  -0.07863   0.05186   0.07295
   7        2S          0.19871  -0.02432   0.22443  -0.16297  -0.22922
   8        2PX        -0.01246  -0.07611  -0.05832   0.02152   0.09561
   9        2PY        -0.05598   0.00813  -0.07494   0.04642   0.06511
  10        2PZ         0.00737  -0.14407   0.01321  -0.08387  -0.00459
  11 3   C  1S          0.03506   0.07851   0.02855  -0.03174  -0.07346
  12        2S         -0.09925  -0.22128  -0.07822   0.10005   0.23236
  13        2PX        -0.12009   0.08560  -0.10060   0.12029   0.05085
  14        2PY         0.03242   0.06740   0.01767  -0.04019  -0.06865
  15        2PZ        -0.03508  -0.03786   0.02815  -0.01634   0.11527
  16 4   H  1S         -0.02892  -0.05440  -0.00893   0.01466   0.09987
  17 5   C  1S          0.04469  -0.07970   0.03518  -0.02704   0.05908
  18        2S         -0.12217   0.21864  -0.09650   0.08319  -0.18176
  19        2PX        -0.00033   0.06187   0.14062  -0.14333  -0.06546
  20        2PY         0.04168  -0.06527   0.02881  -0.03033   0.06629
  21        2PZ        -0.17332  -0.07152   0.03110  -0.06372   0.13968
  22 6   C  1S         -0.11000  -0.00006  -0.00015  -0.00001   0.00004
  23        2S          0.30039   0.00017   0.00041   0.00004  -0.00011
  24        2PX        -0.00024   0.07572   0.17156   0.16664   0.07606
  25        2PY        -0.09137  -0.00002  -0.00014   0.00013  -0.00025
  26        2PZ         0.00002   0.17156  -0.07571   0.07610  -0.16670
  27 7   C  1S          0.04460   0.07031   0.05153   0.06462  -0.00609
  28        2S         -0.12193  -0.19287  -0.14135  -0.19878   0.01873
  29        2PX         0.15018  -0.09975   0.02217  -0.13978  -0.06572
  30        2PY         0.04157   0.05761   0.04223   0.07289  -0.00707
  31        2PZ         0.08668   0.04723  -0.13023  -0.06341   0.14312
  32 8   C  1S          0.03526  -0.01460  -0.08217  -0.04779   0.06424
  33        2S         -0.09981   0.04308   0.23047   0.15136  -0.20291
  34        2PX         0.09046   0.02742  -0.00405  -0.08538   0.10251
  35        2PY         0.03256  -0.01844  -0.06711  -0.03919   0.06906
  36        2PZ        -0.08641  -0.13415  -0.03019  -0.06790  -0.09048
  37 9   C  1S         -0.07173  -0.07233   0.03178   0.03723  -0.08138
  38        2S          0.19895   0.20645  -0.09070  -0.11700   0.25571
  39        2PX         0.00022  -0.06611  -0.14986  -0.06895  -0.03166
  40        2PY        -0.05606  -0.06895   0.03031   0.03333  -0.07282
  41        2PZ        -0.01453  -0.05250   0.02325   0.04358  -0.09496
  42 10  C  1S          0.03504   0.05087   0.06627  -0.01736   0.07818
  43        2S         -0.09918  -0.14124  -0.18747   0.05456  -0.24725
  44        2PX        -0.09060  -0.02168   0.01742   0.02175  -0.13167
  45        2PY         0.03237   0.03715   0.05895  -0.02661   0.07483
  46        2PZ        -0.08651  -0.06830   0.11920   0.11290  -0.00751
  47 11  C  1S          0.04478   0.00946  -0.08656  -0.03766  -0.05290
  48        2S         -0.12241  -0.02595   0.23746   0.11587   0.16273
  49        2PX        -0.14999   0.08367  -0.05898  -0.14132  -0.06256
  50        2PY         0.04171   0.00775  -0.07092  -0.04233  -0.05979
  51        2PZ         0.08664   0.12797   0.05324  -0.06666   0.14160
  52 12  C  1S          0.03509  -0.06391   0.05382   0.07950   0.00930
  53        2S         -0.09932   0.17817  -0.15279  -0.25130  -0.02971
  54        2PX         0.02983  -0.02683  -0.10273  -0.02734  -0.10145
  55        2PY         0.03241  -0.04895   0.04961   0.07952  -0.00069
  56        2PZ         0.12176  -0.03543  -0.08415   0.13610  -0.03231
  57 13  C  1S         -0.07183   0.06370   0.04660  -0.08910   0.00847
  58        2S          0.19924  -0.18183  -0.13301   0.27998  -0.02663
  59        2PX         0.01271   0.00823  -0.09536   0.08647  -0.04621
  60        2PY        -0.05615   0.06073   0.04444  -0.07960   0.00748
  61        2PZ         0.00714  -0.10699   0.09755   0.05807   0.06049
  62 14  C  1S          0.03526   0.03199  -0.07712   0.07635  -0.02403
  63        2S         -0.09979  -0.09183   0.21583  -0.24128   0.07628
  64        2PX         0.12017  -0.13193  -0.00441   0.11692   0.05787
  65        2PY         0.03257   0.03251  -0.06158   0.07825  -0.01448
  66        2PZ        -0.03525  -0.04619   0.00884  -0.07674   0.08765
  67 15  H  1S         -0.02902  -0.03018   0.04609  -0.08516   0.05423
  68 16  H  1S          0.04355  -0.04693  -0.03432   0.10644  -0.01010
  69 17  H  1S         -0.02893   0.03488  -0.04271  -0.09387  -0.03727
  70 18  H  1S         -0.02889  -0.02490  -0.04922  -0.00441  -0.10092
  71 19  H  1S          0.04348   0.05327  -0.02342  -0.04451   0.09723
  72 20  H  1S         -0.02904   0.01951   0.05150   0.07917  -0.06267
  73 21  H  1S          0.04342  -0.00628   0.05791  -0.06199  -0.08715
  74 22  H  1S         -0.02900   0.05501   0.00302   0.08952   0.04663
  75 23  H  1S         -0.04787  -0.00962   0.08797   0.05088   0.07170
  76 24  H  1S         -0.04783   0.08097  -0.03574   0.03648  -0.07971
  77 25  H  1S          0.11234   0.00004   0.00017  -0.00008   0.00017
  78 26  H  1S         -0.04771  -0.07145  -0.05236  -0.08746   0.00838
  79 27  H  1S         -0.03789   0.08248  -0.00570   0.07481   0.07210
  80 28  H  1S          0.06686  -0.00907   0.08366  -0.06334  -0.08896
  81 29  H  1S         -0.03777  -0.07936  -0.02337   0.04344   0.09441
  82 30  H  1S         -0.03776   0.05984  -0.05714  -0.10346  -0.00948
  83 31  H  1S          0.06706  -0.06779  -0.04960   0.10872  -0.01027
  84 32  H  1S         -0.03795  -0.03640   0.07424  -0.09986   0.02888
  85 33  H  1S         -0.03795   0.01950   0.08031   0.05995  -0.08479
  86 34  H  1S          0.06695   0.07697  -0.03382  -0.04548   0.09937
  87 35  H  1S         -0.03773  -0.04619  -0.06864   0.02494  -0.10082
                          26        27        28        29        30
                           O         O         O         O         O
     Eigenvalues --    -0.68904  -0.67638  -0.67637  -0.62328  -0.62325
   1 1   C  1S         -0.02234   0.00695   0.02125   0.02828  -0.01728
   2        2S          0.07380  -0.01518  -0.07291  -0.09551   0.06197
   3        2PX         0.06694  -0.09716   0.15824  -0.02282   0.04809
   4        2PY         0.11029  -0.06964   0.03651  -0.19966   0.08173
   5        2PZ         0.02262  -0.15062  -0.10456  -0.02582  -0.14568
   6 2   C  1S         -0.01404   0.00806  -0.00326   0.04710   0.00295
   7        2S          0.04472  -0.01899   0.00766  -0.15976  -0.01002
   8        2PX         0.07289  -0.09979   0.15345  -0.03845   0.04956
   9        2PY         0.09835  -0.07594   0.03095  -0.20208  -0.01266
  10        2PZ        -0.04204   0.14860   0.13463   0.01481   0.09080
  11 3   C  1S         -0.02237  -0.00987  -0.02011   0.02591   0.02067
  12        2S          0.07390   0.04010   0.06296  -0.08704  -0.07339
  13        2PX         0.01361  -0.05965  -0.17860   0.02954  -0.14769
  14        2PY         0.11030  -0.07540   0.02253  -0.18795  -0.10601
  15        2PZ        -0.06918   0.17344  -0.05038   0.03631  -0.02667
  16 4   H  1S          0.00070   0.06928  -0.00116  -0.02134  -0.04063
  17 5   C  1S         -0.03942  -0.00228   0.01645   0.01506   0.03030
  18        2S          0.13010   0.00736  -0.05301  -0.04977  -0.10014
  19        2PX        -0.00009   0.19153   0.02627  -0.01960   0.00964
  20        2PY         0.18491  -0.01023   0.07489  -0.09872  -0.19875
  21        2PZ        -0.01745   0.02604  -0.18954  -0.07785  -0.15672
  22 6   C  1S         -0.03030   0.00000  -0.00001  -0.00005  -0.00002
  23        2S          0.10302   0.00002   0.00005   0.00017   0.00006
  24        2PX        -0.00014   0.19767   0.02744  -0.06764   0.03370
  25        2PY         0.25435   0.00013  -0.00003  -0.00007  -0.00002
  26        2PZ        -0.00007  -0.02739   0.19755   0.03372   0.06776
  27 7   C  1S         -0.03954  -0.01313  -0.01016   0.01873  -0.02818
  28        2S          0.13044   0.04234   0.03275  -0.06190   0.09313
  29        2PX         0.01517  -0.07172  -0.17801   0.07466  -0.13236
  30        2PY         0.18479  -0.05951  -0.04640  -0.12272   0.18491
  31        2PZ         0.00896  -0.17822   0.07361   0.06414  -0.06224
  32 8   C  1S         -0.02225   0.02230   0.00152   0.00494  -0.03279
  33        2S          0.07353  -0.07440   0.00319  -0.01998   0.11213
  34        2PX         0.05325  -0.05501  -0.17085   0.10683  -0.00867
  35        2PY         0.11035   0.01830  -0.07665   0.00216   0.21578
  36        2PZ         0.04633   0.18135  -0.05523  -0.10302   0.05064
  37 9   C  1S         -0.01417  -0.00120   0.00863  -0.02100  -0.04227
  38        2S          0.04512   0.00283  -0.02032   0.07123   0.14339
  39        2PX        -0.00003   0.20681   0.02839  -0.09270   0.04609
  40        2PY         0.09819   0.01129  -0.08137   0.09010   0.18139
  41        2PZ         0.08387   0.02363  -0.17212   0.01796   0.03623
  42 10  C  1S         -0.02223  -0.02190  -0.00456  -0.02913  -0.01586
  43        2S          0.07346   0.07082   0.02317   0.10151   0.05176
  44        2PX        -0.05312  -0.09946   0.14943   0.07173  -0.08014
  45        2PY         0.11038   0.00327  -0.07872   0.17068   0.13212
  46        2PZ         0.04654  -0.15949  -0.10241   0.10245  -0.05129
  47 11  C  1S         -0.03954   0.01534  -0.00627  -0.03377  -0.00211
  48        2S          0.13044  -0.04941   0.02019   0.11158   0.00698
  49        2PX        -0.01500  -0.11699   0.15200   0.15041   0.02037
  50        2PY         0.18472   0.07001  -0.02855   0.22163   0.01382
  51        2PZ         0.00882   0.15184   0.11891  -0.08856   0.01340
  52 12  C  1S         -0.02234  -0.01249   0.01861  -0.03087   0.01212
  53        2S          0.07382   0.03449  -0.06620   0.10714  -0.03876
  54        2PX        -0.06685  -0.05060  -0.17873  -0.05205  -0.01098
  55        2PY         0.11024   0.05726   0.05408   0.18593  -0.10981
  56        2PZ         0.02255   0.17343  -0.05957  -0.10051  -0.10851
  57 13  C  1S         -0.01402  -0.00687  -0.00534  -0.02613   0.03932
  58        2S          0.04466   0.01619   0.01260   0.08864  -0.13336
  59        2PX        -0.07287  -0.05482  -0.17458  -0.06238   0.00072
  60        2PY         0.09828   0.06484   0.05034   0.11205  -0.16871
  61        2PZ        -0.04181  -0.17953   0.08959   0.06357   0.06661
  62 14  C  1S         -0.02239   0.01492  -0.01668   0.00082   0.03314
  63        2S          0.07400  -0.05554   0.04974  -0.00588  -0.11373
  64        2PX        -0.01366  -0.10607   0.15564   0.13544   0.06567
  65        2PY         0.11019   0.06658   0.04211   0.02909  -0.21381
  66        2PZ        -0.06898  -0.15319  -0.09569  -0.04320   0.01256
  67 15  H  1S          0.00078  -0.06635  -0.01988  -0.01938  -0.04164
  68 16  H  1S         -0.01271  -0.04192  -0.03253   0.02271  -0.03401
  69 17  H  1S          0.00068  -0.03572  -0.05939   0.04602   0.00179
  70 18  H  1S          0.00054   0.01592   0.06742   0.04586   0.00400
  71 19  H  1S         -0.01254  -0.00725   0.05260   0.01825   0.03665
  72 20  H  1S          0.00056  -0.03357   0.06062  -0.02438   0.03895
  73 21  H  1S         -0.01274   0.04913  -0.02002  -0.04070  -0.00255
  74 22  H  1S          0.00062   0.05043  -0.04749  -0.02626   0.03764
  75 23  H  1S         -0.11091  -0.05963   0.02432  -0.14222  -0.00887
  76 24  H  1S         -0.11112   0.00874  -0.06383   0.06333   0.12750
  77 25  H  1S         -0.16862  -0.00008   0.00003   0.00008   0.00003
  78 26  H  1S         -0.11097   0.05075   0.03953   0.07872  -0.11864
  79 27  H  1S         -0.06335   0.05158  -0.04107   0.12093  -0.04317
  80 28  H  1S         -0.06050   0.05450  -0.02223   0.10946   0.00685
  81 29  H  1S         -0.06333   0.06565  -0.00661   0.11462   0.05792
  82 30  H  1S         -0.06331  -0.03857  -0.05358  -0.10756   0.07032
  83 31  H  1S         -0.06046  -0.04653  -0.03613  -0.06067   0.09138
  84 32  H  1S         -0.06324  -0.06145  -0.02415  -0.02309   0.12631
  85 33  H  1S         -0.06345  -0.02714   0.06021  -0.00711  -0.12822
  86 34  H  1S         -0.06030  -0.00810   0.05840  -0.04879  -0.09823
  87 35  H  1S         -0.06348   0.00974   0.06529  -0.09787  -0.08318
                          31        32        33        34        35
                           O         O         O         O         O
     Eigenvalues --    -0.61302  -0.59560  -0.58442  -0.58441  -0.57356
   1 1   C  1S         -0.01799  -0.00790  -0.00173  -0.02233  -0.03719
   2        2S          0.06988   0.02573   0.01591   0.08654   0.13416
   3        2PX        -0.17410   0.19992  -0.09592  -0.15895  -0.11089
   4        2PY         0.03327  -0.01771  -0.06905   0.06626  -0.04275
   5        2PZ        -0.10894  -0.13994  -0.19465  -0.05076   0.07084
   6 2   C  1S          0.00257   0.00000   0.00302   0.00755   0.03223
   7        2S          0.00075   0.00001  -0.00738  -0.01842  -0.12791
   8        2PX        -0.17887   0.09927   0.00828  -0.23886   0.22008
   9        2PY         0.04165   0.00001   0.02930   0.07335   0.07736
  10        2PZ         0.10336   0.17181   0.20177   0.05549  -0.12711
  11 3   C  1S         -0.01799   0.00789  -0.01413  -0.01737  -0.03722
  12        2S          0.06990  -0.02572   0.04811   0.07367   0.13425
  13        2PX         0.00769  -0.22095  -0.11182   0.05778  -0.11685
  14        2PY         0.03327   0.01775   0.09564   0.00036  -0.04257
  15        2PZ         0.20529   0.10348  -0.01809   0.24237   0.06075
  16 4   H  1S          0.12094   0.04374   0.01152   0.14084   0.07841
  17 5   C  1S          0.00835  -0.00007  -0.03513  -0.00509   0.05947
  18        2S         -0.02436   0.00023   0.12395   0.01797  -0.20819
  19        2PX         0.00002   0.27333  -0.00380   0.02265   0.00003
  20        2PY         0.08395   0.00023   0.09216   0.01320   0.02467
  21        2PZ        -0.03960  -0.00047  -0.19651  -0.02838  -0.10193
  22 6   C  1S         -0.07649   0.00000   0.00002   0.00003  -0.03670
  23        2S          0.26460  -0.00002  -0.00009  -0.00013   0.12645
  24        2PX         0.00001   0.00017   0.03440  -0.23699  -0.00005
  25        2PY        -0.01437   0.00009   0.00013   0.00026  -0.10916
  26        2PZ        -0.00008   0.00039   0.23699   0.03437   0.00016
  27 7   C  1S          0.00835   0.00004   0.02190  -0.02791   0.05951
  28        2S         -0.02439  -0.00012  -0.07726   0.09846  -0.20832
  29        2PX         0.03442  -0.13674  -0.09728   0.14211   0.08824
  30        2PY         0.08392  -0.00018  -0.05766   0.07317   0.02449
  31        2PZ         0.01983   0.23669  -0.07733   0.06585   0.05082
  32 8   C  1S         -0.01792   0.00797   0.02217  -0.00349  -0.03717
  33        2S          0.06964  -0.02598  -0.08808   0.00461   0.13407
  34        2PX        -0.18138   0.02092   0.17094   0.18168   0.00615
  35        2PY         0.03313   0.01739  -0.04835   0.08261  -0.04270
  36        2PZ        -0.09593  -0.24281   0.10630  -0.04086  -0.13138
  37 9   C  1S          0.00260  -0.00001  -0.00806  -0.00115   0.03221
  38        2S          0.00065   0.00001   0.01969   0.00280  -0.12786
  39        2PX        -0.00018  -0.19800   0.02811  -0.19114   0.00004
  40        2PY         0.04132  -0.00018  -0.07852  -0.01151   0.07727
  41        2PZ        -0.20644   0.00054   0.24973   0.03620   0.25439
  42 10  C  1S         -0.01788  -0.00789   0.02030   0.00966  -0.03718
  43        2S          0.06950   0.02566  -0.08324  -0.02946   0.13412
  44        2PX         0.18127   0.02058  -0.21533   0.12592  -0.00607
  45        2PY         0.03297  -0.01758  -0.02288  -0.09306  -0.04266
  46        2PZ        -0.09619   0.24316   0.08987   0.06914  -0.13129
  47 11  C  1S          0.00839   0.00001   0.01314   0.03289   0.05952
  48        2S         -0.02450  -0.00002  -0.04636  -0.11604  -0.20836
  49        2PX        -0.03449  -0.13683   0.05342   0.16387  -0.08802
  50        2PY         0.08357   0.00001  -0.03456  -0.08639   0.02456
  51        2PZ         0.01988  -0.23668  -0.05489  -0.08504   0.05085
  52 12  C  1S         -0.01790   0.00789  -0.00800   0.02099  -0.03716
  53        2S          0.06956  -0.02567   0.03983  -0.07873   0.13406
  54        2PX         0.17390   0.20040   0.13615  -0.12583   0.11088
  55        2PY         0.03297   0.01745  -0.04760  -0.08308  -0.04280
  56        2PZ        -0.10917   0.13912  -0.20184  -0.00619   0.07062
  57 13  C  1S          0.00258   0.00001   0.00502  -0.00639   0.03223
  58        2S          0.00072  -0.00002  -0.01223   0.01560  -0.12790
  59        2PX         0.17888   0.09925   0.05941  -0.23141  -0.22031
  60        2PY         0.04133   0.00002   0.04880  -0.06238   0.07716
  61        2PZ         0.10317  -0.17133   0.20980   0.00416  -0.12685
  62 14  C  1S         -0.01792  -0.00794  -0.01842   0.01275  -0.03718
  63        2S          0.06963   0.02589   0.06681  -0.05735   0.13411
  64        2PX        -0.00739  -0.22091   0.09179   0.08668   0.11686
  65        2PY         0.03321  -0.01742   0.09199   0.02647  -0.04266
  66        2PZ         0.20499  -0.10304   0.05110  -0.23785   0.06023
  67 15  H  1S          0.12073  -0.04361   0.05086  -0.13201   0.07819
  68 16  H  1S          0.09630   0.00017   0.07666  -0.09733  -0.17047
  69 17  H  1S          0.12078   0.04395   0.11617  -0.08064   0.07834
  70 18  H  1S          0.12071  -0.04403  -0.13973   0.02174   0.07828
  71 19  H  1S          0.09625  -0.00021  -0.12250  -0.01772  -0.17054
  72 20  H  1S          0.12075   0.04355  -0.12799  -0.06054   0.07816
  73 21  H  1S          0.09636   0.00004   0.04602   0.11506  -0.17043
  74 22  H  1S          0.12091  -0.04374   0.08874   0.10997   0.07839
  75 23  H  1S         -0.06651  -0.00001   0.01698   0.04243  -0.05920
  76 24  H  1S         -0.06677  -0.00013  -0.04525  -0.00644  -0.05926
  77 25  H  1S          0.06032  -0.00007  -0.00013  -0.00023   0.10745
  78 26  H  1S         -0.06676   0.00011   0.02836  -0.03592  -0.05915
  79 27  H  1S          0.00254   0.01192   0.06207  -0.02056   0.06058
  80 28  H  1S         -0.01657   0.00000  -0.01609  -0.04027  -0.09449
  81 29  H  1S          0.00257  -0.01194  -0.05910   0.02794   0.06047
  82 30  H  1S          0.00269  -0.01168   0.05380   0.03720   0.06059
  83 31  H  1S         -0.01637   0.00001  -0.02678   0.03430  -0.09436
  84 32  H  1S          0.00253   0.01175  -0.04893  -0.04342   0.06048
  85 33  H  1S          0.00259  -0.01175   0.00545  -0.06518   0.06050
  86 34  H  1S         -0.01636   0.00010   0.04317   0.00634  -0.09445
  87 35  H  1S          0.00268   0.01179  -0.01330   0.06413   0.06049
                          36        37        38        39        40
                           O         O         O         O         O
     Eigenvalues --    -0.55812  -0.55811  -0.55772  -0.53456  -0.53451
   1 1   C  1S          0.04198  -0.00395   0.01147  -0.01875  -0.01027
   2        2S         -0.14830   0.01141  -0.03717   0.07063   0.02553
   3        2PX         0.05145   0.07699  -0.00996  -0.06099   0.24085
   4        2PY        -0.23341   0.06583  -0.12379  -0.02289   0.03414
   5        2PZ        -0.01491  -0.05476  -0.04282   0.13673   0.13293
   6 2   C  1S          0.02201   0.02276   0.03973   0.00603  -0.00044
   7        2S         -0.07343  -0.07615  -0.13904  -0.03783   0.00272
   8        2PX         0.02533  -0.02241   0.00318   0.26568  -0.08741
   9        2PY        -0.20539  -0.20737  -0.20585   0.03700  -0.00254
  10        2PZ         0.04004  -0.04294  -0.00028  -0.16485  -0.10724
  11 3   C  1S         -0.00339   0.04237   0.01007  -0.01712   0.01279
  12        2S          0.00934  -0.14953  -0.03229   0.06636  -0.03514
  13        2PX         0.08573   0.03777   0.03376  -0.14805   0.01598
  14        2PY         0.06458  -0.23841  -0.11470  -0.02757  -0.03051
  15        2PZ        -0.04097  -0.03534   0.02996   0.02358   0.27442
  16 4   H  1S         -0.01536  -0.08131   0.00007   0.02975   0.15205
  17 5   C  1S         -0.03943   0.01049  -0.00845  -0.00456   0.00938
  18        2S          0.13315  -0.03546   0.02795   0.01751  -0.03596
  19        2PX         0.00424   0.01500  -0.00101   0.24429   0.11884
  20        2PY         0.24572  -0.06112   0.11807   0.00696  -0.01442
  21        2PZ         0.04186  -0.01844  -0.10464   0.01634  -0.03382
  22 6   C  1S         -0.00174  -0.00372  -0.06581   0.00003   0.00000
  23        2S          0.00596   0.01273   0.22550  -0.00011   0.00000
  24        2PX        -0.01507  -0.05393   0.00357   0.12971   0.06327
  25        2PY         0.00868   0.01823   0.32449  -0.00004   0.00001
  26        2PZ         0.05406  -0.01506  -0.00069  -0.06330   0.12964
  27 7   C  1S          0.00988  -0.03985  -0.00695  -0.00586  -0.00863
  28        2S         -0.03339   0.13454   0.02287   0.02247   0.03310
  29        2PX         0.01997  -0.03184   0.09192   0.09421  -0.10284
  30        2PY        -0.05951   0.25040   0.10869   0.00892   0.01326
  31        2PZ        -0.00589  -0.02277   0.05360  -0.20550   0.11612
  32 8   C  1S         -0.03395  -0.02333   0.01457  -0.00251  -0.02122
  33        2S          0.12140   0.08025  -0.04815  -0.00279   0.07503
  34        2PX        -0.01015  -0.01462  -0.04146   0.18610   0.16959
  35        2PY         0.16311   0.16711  -0.14008   0.04030  -0.00859
  36        2PZ        -0.08952   0.05788   0.01877   0.17692  -0.05954
  37 9   C  1S         -0.02708   0.01023   0.04173  -0.00267   0.00544
  38        2S          0.08995  -0.03445  -0.14568   0.01669  -0.03414
  39        2PX        -0.01827  -0.06526   0.00434  -0.12336  -0.05991
  40        2PY         0.26311  -0.08780  -0.22494  -0.01621   0.03328
  41        2PZ        -0.00246   0.00106   0.00272  -0.13721   0.28180
  42 10  C  1S         -0.01654   0.03901   0.01059   0.01827  -0.01110
  43        2S          0.06092  -0.13635  -0.03434  -0.05742   0.04841
  44        2PX         0.00246  -0.01287   0.04305   0.24806   0.04191
  45        2PY         0.04878  -0.24252  -0.11379  -0.01805  -0.03696
  46        2PZ        -0.10590  -0.00076   0.02226  -0.06243  -0.17617
  47 11  C  1S          0.02881   0.02791  -0.01130   0.01039  -0.00076
  48        2S         -0.09732  -0.09432   0.03759  -0.03984   0.00289
  49        2PX        -0.03645  -0.02752  -0.08813  -0.02280   0.13800
  50        2PY        -0.17662  -0.16890   0.13545  -0.01599   0.00116
  51        2PZ         0.00851   0.02880   0.05060   0.03520   0.23337
  52 12  C  1S          0.03834  -0.01701   0.01229   0.01965   0.00842
  53        2S         -0.13402   0.06263  -0.04037  -0.06366  -0.03987
  54        2PX        -0.00394   0.09316  -0.00083   0.15173  -0.19684
  55        2PY        -0.23786   0.05008  -0.12269  -0.01268   0.03920
  56        2PZ         0.01401   0.04902  -0.04965  -0.18921  -0.02524
  57 13  C  1S          0.00838  -0.02598   0.04283  -0.00342  -0.00500
  58        2S         -0.02808   0.08608  -0.14934   0.02137   0.03141
  59        2PX        -0.03345  -0.00629  -0.00111   0.09514   0.26343
  60        2PY        -0.07540   0.25780  -0.23539  -0.02076  -0.03072
  61        2PZ         0.05659   0.01567  -0.00379   0.18600   0.06318
  62 14  C  1S         -0.02446  -0.03303   0.01487   0.00050   0.02138
  63        2S          0.08417   0.11829  -0.04932  -0.01333  -0.07396
  64        2PX        -0.05484   0.07245  -0.04075  -0.07902  -0.12640
  65        2PY         0.17472   0.15535  -0.13970   0.04111   0.00274
  66        2PZ        -0.01587   0.05470   0.02439  -0.23077   0.15119
  67 15  H  1S          0.02880   0.07702  -0.00995  -0.13823   0.07051
  68 16  H  1S         -0.01395   0.04430  -0.06509   0.11083   0.16414
  69 17  H  1S         -0.06281   0.05361  -0.00618   0.11686  -0.10191
  70 18  H  1S          0.05245  -0.06399  -0.00264   0.12999   0.08451
  71 19  H  1S          0.04596  -0.01696  -0.06322   0.08677  -0.17807
  72 20  H  1S          0.07777   0.02694  -0.00842  -0.14666  -0.05042
  73 21  H  1S         -0.03695  -0.03810  -0.06004  -0.19746   0.01392
  74 22  H  1S         -0.08164  -0.01375  -0.00203   0.00804  -0.15472
  75 23  H  1S          0.11174   0.10658  -0.09432   0.00470  -0.00034
  76 24  H  1S         -0.15597   0.03825  -0.08336  -0.00202   0.00424
  77 25  H  1S         -0.00537  -0.01121  -0.19984   0.00001  -0.00001
  78 26  H  1S          0.03751  -0.15922  -0.07738  -0.00257  -0.00389
  79 27  H  1S          0.13342  -0.04829   0.08252   0.02902  -0.03548
  80 28  H  1S          0.12961   0.13044   0.11654  -0.05288   0.00370
  81 29  H  1S         -0.04793   0.13685   0.07699   0.03380   0.03103
  82 30  H  1S          0.14186  -0.01816   0.08055   0.00998  -0.04485
  83 31  H  1S          0.04736  -0.16393   0.13526   0.02969   0.04392
  84 32  H  1S         -0.10924  -0.08223   0.09091  -0.04536  -0.00737
  85 33  H  1S         -0.08722  -0.10467   0.09161  -0.04385   0.01372
  86 34  H  1S         -0.16686   0.05477   0.12864   0.02321  -0.04763
  87 35  H  1S         -0.01763   0.14466   0.07558   0.01618   0.04294
                          41        42        43        44        45
                           O         O         O         O         O
     Eigenvalues --    -0.52982  -0.48655  -0.48653  -0.46910  -0.41166
   1 1   C  1S          0.00378  -0.00254   0.00417  -0.03059   0.00693
   2        2S          0.00109   0.00421  -0.02604   0.10965  -0.02073
   3        2PX        -0.15444   0.19816   0.14808  -0.04866  -0.03460
   4        2PY        -0.08431   0.03262  -0.00553   0.27021  -0.11813
   5        2PZ        -0.20689  -0.13611   0.14958  -0.08301   0.08236
   6 2   C  1S          0.00002  -0.01326  -0.00134   0.00000  -0.00658
   7        2S         -0.00007   0.06319   0.00640   0.00001   0.01119
   8        2PX         0.11748  -0.17032  -0.11454  -0.00620  -0.07545
[...]
    22  H   -0.000003   0.000968  -0.005089   0.418410   0.000000   0.000000
    23  Bq   0.000000   0.000000   0.000000   0.000000   0.000000   0.000000
    24  Bq   0.000000   0.000000   0.000000   0.000000   0.000000   0.000000
    25  Bq   0.000000   0.000000   0.000000   0.000000   0.000000   0.000000
    26  Bq   0.000000   0.000000   0.000000   0.000000   0.000000   0.000000
    27  Bq   0.000000   0.000000   0.000000   0.000000   0.000000   0.000000
    28  Bq   0.000000   0.000000   0.000000   0.000000   0.000000   0.000000
    29  Bq   0.000000   0.000000   0.000000   0.000000   0.000000   0.000000
    30  Bq   0.000000   0.000000   0.000000   0.000000   0.000000   0.000000
    31  H   -0.000144   0.000023   0.000000   0.000003   0.000000   0.000000
    32  H    0.000000   0.000003  -0.000144   0.000023   0.000000   0.000000
    33  H    0.000027  -0.000129   0.000027  -0.000129   0.000000   0.000000
    34  H   -0.000144   0.003440  -0.000144   0.003440   0.000000   0.000000
    35  H    0.000003  -0.000304   0.003864  -0.035518   0.000000   0.000000
    36  H    0.000000  -0.000002  -0.036372   0.003588   0.000000   0.000000
    37  H    0.000000   0.000000   0.003865  -0.000116   0.000000   0.000000
    38  H    0.000003   0.000000   0.000000   0.000000   0.000000   0.000000
    39  H    0.000000   0.000000   0.000000   0.000000   0.000000   0.000000
    40  H    0.000000   0.000000   0.000003   0.000000   0.000000   0.000000
    41  H    0.003864  -0.035521   0.000003  -0.000304   0.000000   0.000000
    42  H   -0.036366   0.003588   0.000000  -0.000002   0.000000   0.000000
    43  H    0.003865  -0.000116   0.000000   0.000000   0.000000   0.000000
              25         26         27         28         29         30
     1  C    0.000000   0.000000   0.000000   0.000000   0.000000   0.000000
     2  C    0.000000   0.000000   0.000000   0.000000   0.000000   0.000000
     3  C    0.000000   0.000000   0.000000   0.000000   0.000000   0.000000
     4  H    0.000000   0.000000   0.000000   0.000000   0.000000   0.000000
     5  C    0.000000   0.000000   0.000000   0.000000   0.000000   0.000000
     6  C    0.000000   0.000000   0.000000   0.000000   0.000000   0.000000
     7  C    0.000000   0.000000   0.000000   0.000000   0.000000   0.000000
     8  C    0.000000   0.000000   0.000000   0.000000   0.000000   0.000000
     9  C    0.000000   0.000000   0.000000   0.000000   0.000000   0.000000
    10  C    0.000000   0.000000   0.000000   0.000000   0.000000   0.000000
    11  C    0.000000   0.000000   0.000000   0.000000   0.000000   0.000000
    12  C    0.000000   0.000000   0.000000   0.000000   0.000000   0.000000
    13  C    0.000000   0.000000   0.000000   0.000000   0.000000   0.000000
    14  C    0.000000   0.000000   0.000000   0.000000   0.000000   0.000000
    15  H    0.000000   0.000000   0.000000   0.000000   0.000000   0.000000
    16  H    0.000000   0.000000   0.000000   0.000000   0.000000   0.000000
    17  H    0.000000   0.000000   0.000000   0.000000   0.000000   0.000000
    18  H    0.000000   0.000000   0.000000   0.000000   0.000000   0.000000
    19  H    0.000000   0.000000   0.000000   0.000000   0.000000   0.000000
    20  H    0.000000   0.000000   0.000000   0.000000   0.000000   0.000000
    21  H    0.000000   0.000000   0.000000   0.000000   0.000000   0.000000
    22  H    0.000000   0.000000   0.000000   0.000000   0.000000   0.000000
    23  Bq   0.000000   0.000000   0.000000   0.000000   0.000000   0.000000
    24  Bq   0.000000   0.000000   0.000000   0.000000   0.000000   0.000000
    25  Bq   0.000000   0.000000   0.000000   0.000000   0.000000   0.000000
    26  Bq   0.000000   0.000000   0.000000   0.000000   0.000000   0.000000
    27  Bq   0.000000   0.000000   0.000000   0.000000   0.000000   0.000000
    28  Bq   0.000000   0.000000   0.000000   0.000000   0.000000   0.000000
    29  Bq   0.000000   0.000000   0.000000   0.000000   0.000000   0.000000
    30  Bq   0.000000   0.000000   0.000000   0.000000   0.000000   0.000000
    31  H    0.000000   0.000000   0.000000   0.000000   0.000000   0.000000
    32  H    0.000000   0.000000   0.000000   0.000000   0.000000   0.000000
    33  H    0.000000   0.000000   0.000000   0.000000   0.000000   0.000000
    34  H    0.000000   0.000000   0.000000   0.000000   0.000000   0.000000
    35  H    0.000000   0.000000   0.000000   0.000000   0.000000   0.000000
    36  H    0.000000   0.000000   0.000000   0.000000   0.000000   0.000000
    37  H    0.000000   0.000000   0.000000   0.000000   0.000000   0.000000
    38  H    0.000000   0.000000   0.000000   0.000000   0.000000   0.000000
    39  H    0.000000   0.000000   0.000000   0.000000   0.000000   0.000000
    40  H    0.000000   0.000000   0.000000   0.000000   0.000000   0.000000
    41  H    0.000000   0.000000   0.000000   0.000000   0.000000   0.000000
    42  H    0.000000   0.000000   0.000000   0.000000   0.000000   0.000000
    43  H    0.000000   0.000000   0.000000   0.000000   0.000000   0.000000
              31         32         33         34         35         36
     1  C   -0.000093  -0.000087   0.003672  -0.074016   0.424638  -0.064911
     2  C   -0.000010   0.003234  -0.000044   0.003234  -0.066919   0.421512
     3  C   -0.000093  -0.074024   0.003670  -0.000087   0.002914  -0.064922
     4  H    0.000003   0.003441  -0.000129   0.000023  -0.000116   0.003590
     5  C    0.003703   0.477527  -0.077086   0.003706  -0.000183   0.003012
     6  C   -0.075270  -0.075304   0.484909  -0.075303   0.003306  -0.000212
     7  C    0.003702   0.003704  -0.077085   0.477530  -0.066711   0.003012
     8  C   -0.000087  -0.000093   0.003671  -0.074019   0.003719  -0.000083
     9  C    0.003232  -0.000010  -0.000044   0.003233  -0.000094   0.000001
    10  C   -0.074024  -0.000093   0.003668  -0.000087  -0.000008   0.000000
    11  C    0.477517   0.003704  -0.077048   0.003705  -0.000071   0.000010
    12  C   -0.074032  -0.000087   0.003668  -0.000093   0.000001   0.000000
    13  C    0.003235   0.003235  -0.000044  -0.000010   0.000000   0.000001
    14  C   -0.000087  -0.074018   0.003668  -0.000093   0.000012  -0.000083
    15  H    0.000023   0.003441  -0.000129   0.000003   0.000000  -0.000002
    16  H   -0.000144  -0.000144   0.000027   0.000000   0.000000   0.000000
    17  H    0.003443   0.000023  -0.000129   0.000003   0.000000   0.000000
    18  H    0.003441   0.000003  -0.000129   0.000023   0.000000   0.000000
    19  H   -0.000144   0.000000   0.000027  -0.000144   0.000003   0.000000
    20  H    0.000023   0.000003  -0.000129   0.003440  -0.000304  -0.000002
    21  H    0.000000  -0.000144   0.000027  -0.000144   0.003864  -0.036372
    22  H    0.000003   0.000023  -0.000129   0.003440  -0.035518   0.003588
    23  Bq   0.000000   0.000000   0.000000   0.000000   0.000000   0.000000
    24  Bq   0.000000   0.000000   0.000000   0.000000   0.000000   0.000000
    25  Bq   0.000000   0.000000   0.000000   0.000000   0.000000   0.000000
    26  Bq   0.000000   0.000000   0.000000   0.000000   0.000000   0.000000
    27  Bq   0.000000   0.000000   0.000000   0.000000   0.000000   0.000000
    28  Bq   0.000000   0.000000   0.000000   0.000000   0.000000   0.000000
    29  Bq   0.000000   0.000000   0.000000   0.000000   0.000000   0.000000
    30  Bq   0.000000   0.000000   0.000000   0.000000   0.000000   0.000000
    31  H    0.600568   0.001254  -0.049181   0.001255  -0.000011   0.000000
    32  H    0.001254   0.600574  -0.049196   0.001255  -0.000084   0.001114
    33  H   -0.049181  -0.049196   0.608355  -0.049216   0.001107  -0.000068
    34  H    0.001255   0.001255  -0.049216   0.600565  -0.046452   0.001114
    35  H   -0.000011  -0.000084   0.001107  -0.046452   0.550732  -0.045803
    36  H    0.000000   0.001114  -0.000068   0.001114  -0.045803   0.545468
    37  H   -0.000011  -0.046457   0.001107  -0.000084   0.001094  -0.045817
    38  H   -0.046466  -0.000084   0.001106  -0.000011   0.000000   0.000000
    39  H    0.001114   0.001114  -0.000068   0.000000   0.000000   0.000000
    40  H   -0.000084  -0.046459   0.001107  -0.000011   0.000000  -0.000011
    41  H   -0.000084  -0.000011   0.001107  -0.046447   0.001615  -0.000011
    42  H    0.001114   0.000000  -0.000068   0.001114  -0.000011   0.000000
    43  H   -0.046451  -0.000011   0.001106  -0.000084   0.000000   0.000000
              37         38         39         40         41         42
     1  C    0.002916   0.000001   0.000000  -0.000008   0.003718  -0.000083
     2  C   -0.066925   0.000000   0.000001  -0.000094  -0.000094   0.000001
     3  C    0.424646   0.000012  -0.000083   0.003720  -0.000008   0.000000
     4  H   -0.035517   0.000000  -0.000002  -0.000304   0.000000   0.000000
     5  C   -0.066709  -0.000183   0.003011  -0.066713  -0.000071   0.000010
     6  C    0.003307   0.003307  -0.000212   0.003307   0.003307  -0.000212
     7  C   -0.000183  -0.000071   0.000010  -0.000071  -0.066714   0.003012
     8  C    0.000012  -0.000008   0.000000   0.000001   0.424635  -0.064913
     9  C    0.000000  -0.000094   0.000001   0.000000  -0.066920   0.421519
    10  C    0.000001   0.003720  -0.000083   0.000012   0.002915  -0.064926
    11  C   -0.000071  -0.066717   0.003012  -0.000183  -0.000183   0.003013
    12  C   -0.000008   0.424643  -0.064923   0.002915   0.000012  -0.000083
    13  C   -0.000094  -0.066918   0.421511  -0.066909   0.000000   0.000001
    14  C    0.003718   0.002915  -0.064908   0.424634   0.000001   0.000000
    15  H   -0.000304  -0.000116   0.003589  -0.035516   0.000000   0.000000
    16  H    0.000003   0.003863  -0.036369   0.003864   0.000000   0.000000
    17  H    0.000000  -0.035523   0.003589  -0.000116   0.000000  -0.000002
    18  H    0.000000  -0.000304  -0.000002   0.000000  -0.000116   0.003590
    19  H    0.000000   0.000003   0.000000   0.000000   0.003864  -0.036366
    20  H    0.000000   0.000000   0.000000   0.000000  -0.035521   0.003588
    21  H    0.003865   0.000000   0.000000   0.000003   0.000003   0.000000
    22  H   -0.000116   0.000000   0.000000   0.000000  -0.000304  -0.000002
    23  Bq   0.000000   0.000000   0.000000   0.000000   0.000000   0.000000
    24  Bq   0.000000   0.000000   0.000000   0.000000   0.000000   0.000000
    25  Bq   0.000000   0.000000   0.000000   0.000000   0.000000   0.000000
    26  Bq   0.000000   0.000000   0.000000   0.000000   0.000000   0.000000
    27  Bq   0.000000   0.000000   0.000000   0.000000   0.000000   0.000000
    28  Bq   0.000000   0.000000   0.000000   0.000000   0.000000   0.000000
    29  Bq   0.000000   0.000000   0.000000   0.000000   0.000000   0.000000
    30  Bq   0.000000   0.000000   0.000000   0.000000   0.000000   0.000000
    31  H   -0.000011  -0.046466   0.001114  -0.000084  -0.000084   0.001114
    32  H   -0.046457  -0.000084   0.001114  -0.046459  -0.000011   0.000000
    33  H    0.001107   0.001106  -0.000068   0.001107   0.001107  -0.000068
    34  H   -0.000084  -0.000011   0.000000  -0.000011  -0.046447   0.001114
    35  H    0.001094   0.000000   0.000000   0.000000   0.001615  -0.000011
    36  H   -0.045817   0.000000   0.000000  -0.000011  -0.000011   0.000000
    37  H    0.550717   0.000000  -0.000011   0.001615   0.000000   0.000000
    38  H    0.000000   0.550719  -0.045809   0.001094   0.000000  -0.000011
    39  H   -0.000011  -0.045809   0.545478  -0.045800   0.000000   0.000000
    40  H    0.001615   0.001094  -0.045800   0.550718   0.000000   0.000000
    41  H    0.000000   0.000000   0.000000   0.000000   0.550747  -0.045809
    42  H    0.000000  -0.000011   0.000000   0.000000  -0.045809   0.545455
    43  H    0.000000   0.001616  -0.000011   0.000000   0.001094  -0.045820
              43
     1  C    0.000012
     2  C    0.000000
     3  C    0.000001
     4  H    0.000000
     5  C   -0.000071
     6  C    0.003307
     7  C   -0.000183
     8  C    0.002916
     9  C   -0.066928
    10  C    0.424640
    11  C   -0.066714
    12  C    0.003719
    13  C   -0.000094
    14  C   -0.000008
    15  H    0.000000
    16  H    0.000003
    17  H   -0.000304
    18  H   -0.035523
    19  H    0.003865
    20  H   -0.000116
    21  H    0.000000
    22  H    0.000000
    23  Bq   0.000000
    24  Bq   0.000000
    25  Bq   0.000000
    26  Bq   0.000000
    27  Bq   0.000000
    28  Bq   0.000000
    29  Bq   0.000000
    30  Bq   0.000000
    31  H   -0.046451
    32  H   -0.000011
    33  H    0.001106
    34  H   -0.000084
    35  H    0.000000
    36  H    0.000000
    37  H    0.000000
    38  H    0.001616
    39  H   -0.000011
    40  H    0.000000
    41  H    0.001094
    42  H   -0.045820
    43  H    0.550742
 Mulliken charges:
               1
     1  C   -0.552884
     2  C   -0.566698
     3  C   -0.552872
     4  H    0.287450
     5  C   -0.266297
     6  C   -0.264865
     7  C   -0.266212
     8  C   -0.552939
     9  C   -0.566596
    10  C   -0.553022
    11  C   -0.266151
    12  C   -0.552990
    13  C   -0.566618
    14  C   -0.552830
    15  H    0.287433
    16  H    0.288984
    17  H    0.287471
    18  H    0.287485
    19  H    0.288979
    20  H    0.287473
    21  H    0.288997
    22  H    0.287449
    23  Bq   0.000000
    24  Bq   0.000000
    25  Bq   0.000000
    26  Bq   0.000000
    27  Bq   0.000000
    28  Bq   0.000000
    29  Bq   0.000000
    30  Bq   0.000000
    31  H    0.262640
    32  H    0.262657
    33  H    0.257921
    34  H    0.262659
    35  H    0.269278
    36  H    0.275875
    37  H    0.269306
    38  H    0.269314
    39  H    0.275851
    40  H    0.269289
    41  H    0.269273
    42  H    0.275890
    43  H    0.269297
 Sum of Mulliken charges =   0.00000
 Mulliken charges with hydrogens summed into heavy atoms:
               1
     1  C    0.003844
     2  C   -0.001826
     3  C    0.003884
     5  C   -0.003640
     6  C   -0.264865
     7  C   -0.003553
     8  C    0.003807
     9  C   -0.001727
    10  C    0.003760
    11  C   -0.003510
    12  C    0.003796
    13  C   -0.001783
    14  C    0.003893
    23  Bq   0.000000
    24  Bq   0.000000
    25  Bq   0.000000
    26  Bq   0.000000
    27  Bq   0.000000
    28  Bq   0.000000
    29  Bq   0.000000
    30  Bq   0.257921
 N-N= 9.437993006923D+02 E-N=-3.064430664763D+03  KE= 5.024701939574D+02
 Orbital energies and kinetic energies (alpha):
                                 1                 2
   1         O                -9.857423         15.457987
   2         O                -9.857408         15.460090
   3         O                -9.857396         15.459863
   4         O                -9.854467         15.457396
   5         O                -9.854458         15.457211
   6         O                -9.854342         15.456359
   7         O                -9.854142         15.483643
   8         O                -9.853869         15.502877
   9         O                -9.853858         15.502901
  10         O                -9.852676         15.466945
  11         O                -9.851681         15.509181
  12         O                -9.851676         15.508988
  13         O                -9.850316         15.545401
  14         O                -1.086402          1.267341
  15         O                -1.025662          1.343193
  16         O                -1.025634          1.343184
  17         O                -0.956155          1.465065
  18         O                -0.956148          1.465077
  19         O                -0.953943          1.501399
  20         O                -0.869862          1.518982
  21         O                -0.816002          1.406348
  22         O                -0.805705          1.434091
  23         O                -0.805703          1.434049
  24         O                -0.700794          1.509735
  25         O                -0.700779          1.509684
  26         O                -0.689037          0.916878
  27         O                -0.676378          1.089148
  28         O                -0.676372          1.089119
  29         O                -0.623283          1.092593
  30         O                -0.623252          1.092677
  31         O                -0.613016          1.110419
  32         O                -0.595600          1.379232
  33         O                -0.584423          1.223964
  34         O                -0.584407          1.223939
  35         O                -0.573565          1.473835
  36         O                -0.558118          1.169468
  37         O                -0.558112          1.169560
  38         O                -0.557717          1.213224
  39         O                -0.534556          1.309920
  40         O                -0.534506          1.309977
  41         O                -0.529821          1.330773
  42         O                -0.486547          1.463150
  43         O                -0.486535          1.463191
  44         O                -0.469101          1.291455
  45         O                -0.411662          1.450002
  46         O                -0.401751          1.453076
  47         O                -0.401745          1.453063
  48         O                -0.327945          1.588363
  49         O                -0.327932          1.588390
  50         O                -0.271452          1.822689
  51         V                -0.034396          1.665266
  52         V                 0.027691          1.938876
  53         V                 0.027723          1.938749
  54         V                 0.077800          2.869019
  55         V                 0.083792          2.642751
  56         V                 0.083828          2.641911
  57         V                 0.101602          2.241751
  58         V                 0.101654          2.240930
  59         V                 0.108081          2.416730
  60         V                 0.108094          2.416659
  61         V                 0.112050          2.234340
  62         V                 0.122636          2.077167
  63         V                 0.128246          2.323088
  64         V                 0.154047          2.662989
  65         V                 0.154094          2.663355
  66         V                 0.167922          3.105644
  67         V                 0.215764          2.436246
  68         V                 0.215782          2.436211
  69         V                 0.242705          2.645568
  70         V                 0.253038          2.668485
  71         V                 0.253082          2.668606
  72         V                 0.336490          2.920690
  73         V                 0.336546          2.920795
  74         V                 0.348076          2.835463
  75         V                 0.351735          3.061301
  76         V                 0.393149          3.311547
  77         V                 0.393159          3.311522
  78         V                 0.414330          3.387073
  79         V                 0.426982          3.290588
  80         V                 0.468956          3.238590
  81         V                 0.468985          3.238668
  82         V                 0.517043          3.299458
  83         V                 0.534035          3.441305
  84         V                 0.534047          3.441415
  85         V                 0.650466          3.739021
  86         V                 0.650478          3.739043
  87         V                 0.762441          3.826906
 Total kinetic energy from orbitals= 5.024701939574D+02

 This type of calculation cannot be archived.


 HONESTY IN A LAWYER IS LIKE A HEN'S HIND LEGS.
  -- MAGNUS OLESON, LAKE WOBEGON PATRIARCH, C.1875
 Job cpu time:       0 days  0 hours  0 minutes  1.1 seconds.
 File lengths (MBytes):  RWF=      5 Int=      0 D2E=      0 Chk=      1 Scr=      1
 Normal termination of Gaussian 09 at Sun May  4 19:31:15 2014.
