 Entering Gaussian System, Link 0=/usr/local/g09/g09
 Input=/home/anuja/input/phenalene-y-sigma-center1.in
 Output=/home/anuja/output/phenalene-y-sigma-center1.log
 Initial command:
 /usr/local/g09-D.01/g09/l1.exe /gtmp/Gau-5214.inp -scrdir=/gtmp/
 Entering Link 1 = /usr/local/g09-D.01/g09/l1.exe PID=      5216.
  
 Copyright (c) 1988,1990,1992,1993,1995,1998,2003,2009,2013,
            Gaussian, Inc.  All Rights Reserved.
  
 This is part of the Gaussian(R) 09 program.  It is based on
 the Gaussian(R) 03 system (copyright 2003, Gaussian, Inc.),
 the Gaussian(R) 98 system (copyright 1998, Gaussian, Inc.),
 the Gaussian(R) 94 system (copyright 1995, Gaussian, Inc.),
 the Gaussian 92(TM) system (copyright 1992, Gaussian, Inc.),
 the Gaussian 90(TM) system (copyright 1990, Gaussian, Inc.),
 the Gaussian 88(TM) system (copyright 1988, Gaussian, Inc.),
 the Gaussian 86(TM) system (copyright 1986, Carnegie Mellon
 University), and the Gaussian 82(TM) system (copyright 1983,
 Carnegie Mellon University). Gaussian is a federally registered
 trademark of Gaussian, Inc.
  
 This software contains proprietary and confidential information,
 including trade secrets, belonging to Gaussian, Inc.
  
 This software is provided under written license and may be
 used, copied, transmitted, or stored only in accord with that
 written license.
  
 The following legend is applicable only to US Government
 contracts under FAR:
  
                    RESTRICTED RIGHTS LEGEND
  
 Use, reproduction and disclosure by the US Government is
 subject to restrictions as set forth in subparagraphs (a)
 and (c) of the Commercial Computer Software - Restricted
 Rights clause in FAR 52.227-19.
  
 Gaussian, Inc.
 340 Quinnipiac St., Bldg. 40, Wallingford CT 06492
  
  
 ---------------------------------------------------------------
 Warning -- This program may not be used in any manner that
 competes with the business of Gaussian, Inc. or will provide
 assistance to any competitor of Gaussian, Inc.  The licensee
 of this program is prohibited from giving any competitor of
 Gaussian, Inc. access to this program.  By using this program,
 the user acknowledges that Gaussian, Inc. is engaged in the
 business of creating and licensing software in the field of
 computational chemistry and represents and warrants to the
 licensee that it is not a competitor of Gaussian, Inc. and that
 it will not use this program in any manner prohibited above.
 ---------------------------------------------------------------
  

 Cite this work as:
 Gaussian 09, Revision D.01,
 M. J. Frisch, G. W. Trucks, H. B. Schlegel, G. E. Scuseria, 
 M. A. Robb, J. R. Cheeseman, G. Scalmani, V. Barone, B. Mennucci, 
 G. A. Petersson, H. Nakatsuji, M. Caricato, X. Li, H. P. Hratchian, 
 A. F. Izmaylov, J. Bloino, G. Zheng, J. L. Sonnenberg, M. Hada, 
 M. Ehara, K. Toyota, R. Fukuda, J. Hasegawa, M. Ishida, T. Nakajima, 
 Y. Honda, O. Kitao, H. Nakai, T. Vreven, J. A. Montgomery, Jr., 
 J. E. Peralta, F. Ogliaro, M. Bearpark, J. J. Heyd, E. Brothers, 
 K. N. Kudin, V. N. Staroverov, T. Keith, R. Kobayashi, J. Normand, 
 K. Raghavachari, A. Rendell, J. C. Burant, S. S. Iyengar, J. Tomasi, 
 M. Cossi, N. Rega, J. M. Millam, M. Klene, J. E. Knox, J. B. Cross, 
 V. Bakken, C. Adamo, J. Jaramillo, R. Gomperts, R. E. Stratmann, 
 O. Yazyev, A. J. Austin, R. Cammi, C. Pomelli, J. W. Ochterski, 
 R. L. Martin, K. Morokuma, V. G. Zakrzewski, G. A. Voth, 
 P. Salvador, J. J. Dannenberg, S. Dapprich, A. D. Daniels, 
 O. Farkas, J. B. Foresman, J. V. Ortiz, J. Cioslowski, 
 and D. J. Fox, Gaussian, Inc., Wallingford CT, 2013.
 
 ******************************************
 Gaussian 09:  EM64L-G09RevD.01 24-Apr-2013
                 4-May-2014 
 ******************************************
 %NPROC=6
 Will use up to    6 processors via shared memory.
 %MEM=6024MB
 ----------------------------------------------------
 # B3LYP/6-311+G* NMR=GIAO POP=FULL SCF(MAXCYCLE=512)
 ----------------------------------------------------
 1/38=1/1;
 2/12=2,17=6,18=5,40=1/2;
 3/5=4,6=6,7=11,11=2,16=1,25=1,30=1,74=-5/1,2,8,3;
 4//1;
 5/5=2,7=512,38=5/2;
 8/6=1,10=90,11=11/1;
 10/13=100,45=16/2;
 6/7=3,28=1/1;
 99/9=1/99;
 -------------------------------------------------------------
 -------------------------------------------------- # Center 1
 -------------------------------------------------------------
 Symbolic Z-matrix:
 Charge =  0 Multiplicity = 1
 6                    -2.44129   1.43619   0. 
 6                    -2.44129   2.82724   0. 
 6                    -1.23578   3.52121   0. 
 1                    -1.23936   4.60655   0. 
 6                     0.00165   2.8351    0. 
 6                     0.00079   1.41509   0. 
 6                    -1.2294    0.70585   0. 
 6                    -1.20468  -0.70884   0. 
 6                    -0.00084  -1.40584   0. 
 6                     1.20383  -0.71045   0. 
 6                     1.23031   0.70418   0. 
 6                     2.44317   1.43266   0. 
 6                     2.44483   2.82368   0. 
 6                     1.24013   3.5193    0. 
 1                     1.24527   4.60463   0. 
 1                     3.38322   3.36489   0. 
 1                     3.38461   0.89272   0. 
 1                     2.14108  -1.25766   0. 
 1                    -0.0015   -2.48912   0. 
 1                    -2.14274  -1.2547    0. 
 1                    -3.37904   3.36953   0. 
 1                    -3.38379   0.89801   0. 
 1                     1.23031   0.70418   1. 
 1                     0.00165   2.8351    1. 
 1                     0.00079   1.41509   1. 
 1                    -1.2294    0.70585   1. 
 1                    -2.51719   1.39334   0.9962 
 1                    -2.51674   2.87087   0.9962 
 1                    -1.2365    3.60836   0.9962 
 1                     2.519     1.38971   0.9962 
 1                     2.52034   2.8672    0.9962 
 1                     1.24096   3.60645   0.9962 
 1                    -1.2798   -0.75304   0.9962 
 1                    -0.00089  -1.49299   0.99619 
 1                     1.27889  -0.75474   0.9962 
 bq                    0.00165   2.8351   -1.7 
 bq                    0.00159   2.7351   -1.7 
 bq                    0.00153   2.6351   -1.7 
 bq                    0.00147   2.5351   -1.7 
 bq                    0.00141   2.4351   -1.7 
 bq                    0.00135   2.3351   -1.7 
 bq                    0.00129   2.2351   -1.7 
 bq                    0.00123   2.1351   -1.7 
 bq                    0.00117   2.0351   -1.7 
 bq                    0.0011    1.9351   -1.7 
 bq                    0.00104   1.8351   -1.7 
 bq                    0.00098   1.7351   -1.7 
 bq                    0.00092   1.6351   -1.7 
 bq                    0.00086   1.5351   -1.7 
 bq                    0.00079   1.41509  -1.7 
 bq                    0.00073   1.31509  -1.7 
 bq                    0.00068   1.21509  -1.7 
 bq                    0.00062   1.11509  -1.7 
 bq                    0.00057   1.01509  -1.7 
 bq                    0.00051   0.91509  -1.7 
 bq                    0.00045   0.81509  -1.7 
 bq                    0.0004    0.71509  -1.7 
 bq                    0.00034   0.61509  -1.7 
 bq                    0.00029   0.51509  -1.7 
 bq                    0.00023   0.41509  -1.7 
 bq                    0.00018   0.31509  -1.7 
 bq                    0.00012   0.21509  -1.7 
 bq                    0.00006   0.11509  -1.7 
 bq                    0.        0.       -1.7 
 bq                   -0.00006  -0.1      -1.7 
 bq                   -0.00012  -0.2      -1.7 
 bq                   -0.00018  -0.3      -1.7 
 bq                   -0.00024  -0.4      -1.7 
 bq                   -0.0003   -0.5      -1.7 
 bq                   -0.00036  -0.6      -1.7 
 bq                   -0.00042  -0.7      -1.7 
 bq                   -0.00048  -0.8      -1.7 
 bq                   -0.00054  -0.9      -1.7 
 bq                   -0.0006   -1.       -1.7 
 bq                   -0.00066  -1.1      -1.7 
 bq                   -0.00072  -1.2      -1.7 
 bq                   -0.00078  -1.3      -1.7 
 
 Symmetry turned off:
 Cannot cope with ghost atoms or with translation vectors.
 Stoichiometry    C13H22
 Framework group  C1[X(C13H22)]
 NUMDOF-- NAT=    35 NAtoms=    77
 Deg. of freedom     0
 Full point group                 C1      NOp   1
                          Input orientation:                          
 ---------------------------------------------------------------------
 Center     Atomic      Atomic             Coordinates (Angstroms)
 Number     Number       Type             X           Y           Z
 ---------------------------------------------------------------------
      1          6           0       -2.441290    1.436190    0.000000
      2          6           0       -2.441290    2.827240    0.000000
      3          6           0       -1.235780    3.521210    0.000000
      4          1           0       -1.239360    4.606550    0.000000
      5          6           0        0.001650    2.835100    0.000000
      6          6           0        0.000790    1.415090    0.000000
      7          6           0       -1.229400    0.705850    0.000000
      8          6           0       -1.204680   -0.708840    0.000000
      9          6           0       -0.000840   -1.405840    0.000000
     10          6           0        1.203830   -0.710450    0.000000
     11          6           0        1.230310    0.704180    0.000000
     12          6           0        2.443170    1.432660    0.000000
     13          6           0        2.444830    2.823680    0.000000
     14          6           0        1.240130    3.519300    0.000000
     15          1           0        1.245270    4.604630    0.000000
     16          1           0        3.383220    3.364890    0.000000
     17          1           0        3.384610    0.892720    0.000000
     18          1           0        2.141080   -1.257660    0.000000
     19          1           0       -0.001500   -2.489120    0.000000
     20          1           0       -2.142740   -1.254700    0.000000
     21          1           0       -3.379040    3.369530    0.000000
     22          1           0       -3.383790    0.898010    0.000000
     23          1           0        1.230310    0.704180    1.000000
     24          1           0        0.001650    2.835100    1.000000
     25          1           0        0.000790    1.415090    1.000000
     26          1           0       -1.229400    0.705850    1.000000
     27          1           0       -2.517190    1.393340    0.996200
     28          1           0       -2.516740    2.870870    0.996200
     29          1           0       -1.236500    3.608360    0.996200
     30          1           0        2.519000    1.389710    0.996200
     31          1           0        2.520340    2.867200    0.996200
     32          1           0        1.240960    3.606450    0.996200
     33          1           0       -1.279800   -0.753040    0.996200
     34          1           0       -0.000890   -1.492990    0.996190
     35          1           0        1.278890   -0.754740    0.996200
     36          0           0        0.001650    2.835100   -1.700000
     37          0           0        0.001590    2.735100   -1.700000
     38          0           0        0.001530    2.635100   -1.700000
     39          0           0        0.001470    2.535100   -1.700000
     40          0           0        0.001410    2.435100   -1.700000
     41          0           0        0.001350    2.335100   -1.700000
     42          0           0        0.001290    2.235100   -1.700000
     43          0           0        0.001230    2.135100   -1.700000
     44          0           0        0.001170    2.035100   -1.700000
     45          0           0        0.001100    1.935100   -1.700000
     46          0           0        0.001040    1.835100   -1.700000
     47          0           0        0.000980    1.735100   -1.700000
     48          0           0        0.000920    1.635100   -1.700000
     49          0           0        0.000860    1.535100   -1.700000
     50          0           0        0.000790    1.415090   -1.700000
     51          0           0        0.000730    1.315090   -1.700000
     52          0           0        0.000680    1.215090   -1.700000
     53          0           0        0.000620    1.115090   -1.700000
     54          0           0        0.000570    1.015090   -1.700000
     55          0           0        0.000510    0.915090   -1.700000
     56          0           0        0.000450    0.815090   -1.700000
     57          0           0        0.000400    0.715090   -1.700000
     58          0           0        0.000340    0.615090   -1.700000
     59          0           0        0.000290    0.515090   -1.700000
     60          0           0        0.000230    0.415090   -1.700000
     61          0           0        0.000180    0.315090   -1.700000
     62          0           0        0.000120    0.215090   -1.700000
     63          0           0        0.000060    0.115090   -1.700000
     64          0           0        0.000000    0.000000   -1.700000
     65          0           0       -0.000060   -0.100000   -1.700000
     66          0           0       -0.000120   -0.200000   -1.700000
     67          0           0       -0.000180   -0.300000   -1.700000
     68          0           0       -0.000240   -0.400000   -1.700000
     69          0           0       -0.000300   -0.500000   -1.700000
     70          0           0       -0.000360   -0.600000   -1.700000
     71          0           0       -0.000420   -0.700000   -1.700000
     72          0           0       -0.000480   -0.800000   -1.700000
     73          0           0       -0.000540   -0.900000   -1.700000
     74          0           0       -0.000600   -1.000000   -1.700000
     75          0           0       -0.000660   -1.100000   -1.700000
     76          0           0       -0.000720   -1.200000   -1.700000
     77          0           0       -0.000780   -1.300000   -1.700000
 ---------------------------------------------------------------------
 Rotational constants (GHZ):      1.0112105      1.0109875      0.5180645
 Standard basis: 6-311+G(d) (5D, 7F)
 Warning:  center  36 has no basis functions!
 Warning:  center  37 has no basis functions!
 Warning:  center  38 has no basis functions!
 Warning:  center  39 has no basis functions!
 Warning:  center  40 has no basis functions!
 Warning:  center  41 has no basis functions!
 Warning:  center  42 has no basis functions!
 Warning:  center  43 has no basis functions!
 Warning:  center  44 has no basis functions!
 Warning:  center  45 has no basis functions!
 Warning:  center  46 has no basis functions!
 Warning:  center  47 has no basis functions!
 Warning:  center  48 has no basis functions!
 Warning:  center  49 has no basis functions!
 Warning:  center  50 has no basis functions!
 Warning:  center  51 has no basis functions!
 Warning:  center  52 has no basis functions!
 Warning:  center  53 has no basis functions!
 Warning:  center  54 has no basis functions!
 Warning:  center  55 has no basis functions!
 Warning:  center  56 has no basis functions!
 Warning:  center  57 has no basis functions!
 Warning:  center  58 has no basis functions!
 Warning:  center  59 has no basis functions!
 Warning:  center  60 has no basis functions!
 Warning:  center  61 has no basis functions!
 Warning:  center  62 has no basis functions!
 Warning:  center  63 has no basis functions!
 Warning:  center  64 has no basis functions!
 Warning:  center  65 has no basis functions!
 Warning:  center  66 has no basis functions!
 Warning:  center  67 has no basis functions!
 Warning:  center  68 has no basis functions!
 Warning:  center  69 has no basis functions!
 Warning:  center  70 has no basis functions!
 Warning:  center  71 has no basis functions!
 Warning:  center  72 has no basis functions!
 Warning:  center  73 has no basis functions!
 Warning:  center  74 has no basis functions!
 Warning:  center  75 has no basis functions!
 Warning:  center  76 has no basis functions!
 Warning:  center  77 has no basis functions!
   352 basis functions,   578 primitive gaussians,   365 cartesian basis functions
    50 alpha electrons       50 beta electrons
       nuclear repulsion energy       943.7990159140 Hartrees.
 NAtoms=   77 NActive=   77 NUniq=   77 SFac= 1.00D+00 NAtFMM=   60 NAOKFM=T Big=T
 Integral buffers will be    131072 words long.
 Raffenetti 2 integral format.
 Two-electron integral symmetry is turned off.
 One-electron integrals computed using PRISM.
 NBasis=   352 RedAO= T EigKep=  1.05D-06  NBF=   352
 NBsUse=   347 1.00D-06 EigRej=  8.03D-07 NBFU=   347
 ExpMin= 4.38D-02 ExpMax= 4.56D+03 ExpMxC= 6.82D+02 IAcc=2 IRadAn=         4 AccDes= 0.00D+00
 Harris functional with IExCor=  402 and IRadAn=       4 diagonalized for initial guess.
 HarFok:  IExCor=  402 AccDes= 0.00D+00 IRadAn=         4 IDoV= 1 UseB2=F ITyADJ=14
 ICtDFT=  3500011 ScaDFX=  1.000000  1.000000  1.000000  1.000000
 FoFCou: FMM=F IPFlag=           0 FMFlag=      100000 FMFlg1=        2001
         NFxFlg=           0 DoJE=T BraDBF=F KetDBF=T FulRan=T
         wScrn=  0.000000 ICntrl=     500 IOpCl=  0 I1Cent=   200000004 NGrid=           0
         NMat0=    1 NMatS0=      1 NMatT0=    0 NMatD0=    1 NMtDS0=    0 NMtDT0=    0
 Symmetry not used in FoFCou.
 Requested convergence on RMS density matrix=1.00D-08 within 512 cycles.
 Requested convergence on MAX density matrix=1.00D-06.
 Requested convergence on             energy=1.00D-06.
 No special actions if energy rises.
 SCF Done:  E(RB3LYP) =  -507.519080735     A.U. after   17 cycles
            NFock= 17  Conv=0.50D-08     -V/T= 1.9884
 DoSCS=F DFT=T ScalE2(SS,OS)=  1.000000  1.000000
 Range of M.O.s used for correlation:     1   347
 NBasis=   352 NAE=    50 NBE=    50 NFC=     0 NFV=     0
 NROrb=    347 NOA=    50 NOB=    50 NVA=   297 NVB=   297

 **** Warning!!: The largest alpha MO coefficient is  0.24266028D+03


 **** Warning!!: The smallest alpha delta epsilon is  0.60523327D-01

          Differentiating once with respect to magnetic field using GIAOs.
          Electric field/nuclear overlap derivatives assumed to be zero.
 FoFCou: FMM=F IPFlag=           0 FMFlag=      100000 FMFlg1=        2001
         NFxFlg=           0 DoJE=F BraDBF=F KetDBF=T FulRan=T
         wScrn=  0.000000 ICntrl=    6100 IOpCl=  0 I1Cent=           7 NGrid=          77
         NMat0=    1 NMatS0=      1 NMatT0=    0 NMatD0=    1 NMtDS0=    0 NMtDT0=    0
 Symmetry not used in FoFCou.
 FoFJK:  IHMeth= 1 ICntrl=    6127 DoSepK=F KAlg= 0 I1Cent=   0 FoldK=F
 IRaf=         1 NMat=   1 IRICut=       1 DoRegI=T DoRafI=F ISym2E= 0.
          There are     3 degrees of freedom in the 1st order CPHF.  IDoFFX=0 NUNeed=     3.
      3 vectors produced by pass  0 Test12= 4.95D-13 3.33D-08 XBig12= 2.46D+03 2.19D+01.
 AX will form     3 AO Fock derivatives at one time.
      3 vectors produced by pass  1 Test12= 4.95D-13 3.33D-08 XBig12= 5.15D+00 7.24D-01.
      3 vectors produced by pass  2 Test12= 4.95D-13 3.33D-08 XBig12= 1.67D-02 3.21D-02.
      3 vectors produced by pass  3 Test12= 4.95D-13 3.33D-08 XBig12= 4.22D-05 2.09D-03.
      3 vectors produced by pass  4 Test12= 4.95D-13 3.33D-08 XBig12= 3.06D-07 3.43D-04.
      3 vectors produced by pass  5 Test12= 4.95D-13 3.33D-08 XBig12= 1.27D-08 7.08D-05.
      3 vectors produced by pass  6 Test12= 4.95D-13 3.33D-08 XBig12= 9.15D-11 2.04D-06.
      1 vectors produced by pass  7 Test12= 4.95D-13 3.33D-08 XBig12= 2.64D-13 1.40D-07.
 InvSVY:  IOpt=1 It=  1 EMax= 7.11D-15
 Solved reduced A of dimension    22 with     3 vectors.
 Calculating GIAO nuclear magnetic shielding tensors.
 SCF GIAO Magnetic shielding tensor (ppm):
      1  C    Isotropic =   194.9361   Anisotropy =    51.9304
   XX=   217.2803   YX=    -3.0791   ZX=     2.9531
   XY=   -12.2830   YY=   224.7372   ZY=     2.8899
   XZ=     2.5708   YZ=     2.6913   ZZ=   142.7908
   Eigenvalues:   142.5725   212.6794   229.5564
      2  C    Isotropic =   205.7090   Anisotropy =    35.1080
   XX=   225.8961   YX=     1.8421   ZX=    -3.3006
   XY=     2.2726   YY=   227.7991   ZY=     2.0901
   XZ=    -6.2832   YZ=     3.9138   ZZ=   163.4318
   Eigenvalues:   162.9133   225.0993   229.1143
      3  C    Isotropic =   195.4413   Anisotropy =    50.8067
   XX=   229.2795   YX=    -5.1260   ZX=    -0.7856
   XY=     3.9601   YY=   213.0201   ZY=    -3.9807
   XZ=    -1.4672   YZ=    -2.3723   ZZ=   144.0245
   Eigenvalues:   143.8630   213.1486   229.3125
      4  H    Isotropic =    31.7073   Anisotropy =     9.6407
   XX=    32.1320   YX=    -0.8950   ZX=     0.3659
   XY=    -1.0621   YY=    37.9748   ZY=     0.6618
   XZ=    -0.6614   YZ=    -0.7430   ZZ=    25.0149
   Eigenvalues:    25.0116    31.9758    38.1344
      5  C    Isotropic =   215.5210   Anisotropy =    28.2876
   XX=   231.4287   YX=     0.0134   ZX=     0.0060
   XY=     0.0083   YY=   234.2661   ZY=     0.9450
   XZ=     0.0175   YZ=     3.9778   ZZ=   180.8682
   Eigenvalues:   180.7549   231.4286   234.3794
      6  C    Isotropic =   209.3216   Anisotropy =    22.8933
   XX=   224.1551   YX=     0.0060   ZX=    -0.0186
   XY=    -0.0035   YY=   224.5827   ZY=     0.1123
   XZ=     0.0020   YZ=     0.3466   ZZ=   179.2271
   Eigenvalues:   179.2259   224.1551   224.5838
      7  C    Isotropic =   216.0234   Anisotropy =    26.5243
   XX=   233.0055   YX=     0.9999   ZX=    -0.1424
   XY=     1.1451   YY=   231.8039   ZY=    -0.0546
   XZ=    -3.2121   YZ=    -1.7701   ZZ=   183.2608
   Eigenvalues:   183.1886   231.1754   233.7063
      8  C    Isotropic =   194.8518   Anisotropy =    51.9877
   XX=   216.3968   YX=   -11.4235   ZX=     3.7646
   XY=    -2.5674   YY=   225.7689   ZY=     1.0676
   XZ=     3.0019   YZ=     0.7243   ZZ=   142.3897
   Eigenvalues:   142.2176   212.8276   229.5103
      9  C    Isotropic =   205.7021   Anisotropy =    34.9904
   XX=   229.0290   YX=    -0.0043   ZX=     0.0029
   XY=     0.0030   YY=   224.5934   ZY=    -3.9762
   XZ=    -0.0112   YZ=    -6.9853   ZZ=   163.4838
   Eigenvalues:   162.9962   225.0810   229.0290
     10  C    Isotropic =   194.8415   Anisotropy =    52.0001
   XX=   216.4225   YX=    11.4524   ZX=    -3.7736
   XY=     2.5704   YY=   225.7416   ZY=     1.0749
   XZ=    -3.0266   YZ=     0.7260   ZZ=   142.3603
   Eigenvalues:   142.1865   212.8297   229.5082
     11  C    Isotropic =   216.0374   Anisotropy =    26.4953
   XX=   232.9922   YX=    -1.0002   ZX=     0.1801
   XY=    -1.1418   YY=   231.8190   ZY=    -0.0653
   XZ=     3.2250   YZ=    -1.7747   ZZ=   183.3010
   Eigenvalues:   183.2267   231.1846   233.7009
     12  C    Isotropic =   194.9323   Anisotropy =    51.9492
   XX=   217.3216   YX=     3.1155   ZX=    -2.9657
   XY=    12.3137   YY=   224.6915   ZY=     2.8928
   XZ=    -2.5675   YZ=     2.6868   ZZ=   142.7839
   Eigenvalues:   142.5652   212.6666   229.5651
     13  C    Isotropic =   205.7107   Anisotropy =    35.0955
   XX=   225.9080   YX=    -1.8273   ZX=     3.3108
   XY=    -2.2766   YY=   227.7917   ZY=     2.0853
   XZ=     6.3101   YZ=     3.9100   ZZ=   163.4324
   Eigenvalues:   162.9116   225.1128   229.1077
     14  C    Isotropic =   195.4423   Anisotropy =    50.7967
   XX=   229.2757   YX=     5.0886   ZX=     0.7695
   XY=    -3.9785   YY=   213.0222   ZY=    -3.9727
   XZ=     1.4720   YZ=    -2.3462   ZZ=   144.0289
   Eigenvalues:   143.8692   213.1509   229.3068
     15  H    Isotropic =    31.7078   Anisotropy =     9.6414
   XX=    32.1367   YX=     0.9028   ZX=    -0.3639
   XY=     1.0697   YY=    37.9733   ZY=     0.6624
   XZ=     0.6557   YZ=    -0.7405   ZZ=    25.0134
   Eigenvalues:    25.0102    31.9778    38.1354
     16  H    Isotropic =    31.0347   Anisotropy =    11.0822
   XX=    36.6683   YX=     3.0825   ZX=     0.3432
   XY=     3.0346   YY=    33.0803   ZY=     0.2343
   XZ=    -0.6557   YZ=    -0.5012   ZZ=    23.3556
   Eigenvalues:    23.3527    31.3286    38.4228
     17  H    Isotropic =    31.6344   Anisotropy =     9.7143
   XX=    37.3668   YX=    -1.8830   ZX=     0.4478
   XY=    -2.0959   YY=    32.7474   ZY=    -0.6235
   XZ=    -0.9004   YZ=     0.9188   ZZ=    24.7891
   Eigenvalues:    24.7834    32.0092    38.1106
     18  H    Isotropic =    31.7059   Anisotropy =     9.4751
   XX=    35.5586   YX=    -3.0472   ZX=     0.7485
   XY=    -2.8680   YY=    34.4716   ZY=    -0.0912
   XZ=    -1.1739   YZ=    -0.2150   ZZ=    25.0874
   Eigenvalues:    25.0777    32.0173    38.0226
     19  H    Isotropic =    31.0962   Anisotropy =    11.0206
   XX=    31.3415   YX=     0.0052   ZX=    -0.0002
   XY=     0.0030   YY=    38.4394   ZY=    -0.4177
   XZ=     0.0000   YZ=     0.8963   ZZ=    23.5076
   Eigenvalues:    23.5038    31.3415    38.4432
     20  H    Isotropic =    31.7052   Anisotropy =     9.4761
   XX=    35.5673   YX=     3.0449   ZX=    -0.7490
   XY=     2.8669   YY=    34.4632   ZY=    -0.0911
   XZ=     1.1714   YZ=    -0.2156   ZZ=    25.0852
   Eigenvalues:    25.0756    32.0174    38.0226
     21  H    Isotropic =    31.0349   Anisotropy =    11.0816
   XX=    36.6596   YX=    -3.0863   ZX=    -0.3424
   XY=    -3.0398   YY=    33.0899   ZY=     0.2346
   XZ=     0.6558   YZ=    -0.5038   ZZ=    23.3553
   Eigenvalues:    23.3524    31.3298    38.4227
     22  H    Isotropic =    31.6324   Anisotropy =     9.7157
   XX=    37.3723   YX=     1.8708   ZX=    -0.4496
   XY=     2.0919   YY=    32.7406   ZY=    -0.6230
   XZ=     0.9063   YZ=     0.9187   ZZ=    24.7843
   Eigenvalues:    24.7785    32.0092    38.1095
     23  H    Isotropic =    22.9615   Anisotropy =    13.7225
   XX=    18.7244   YX=    -0.4094   ZX=     2.0564
   XY=    -0.4239   YY=    18.2177   ZY=    -1.1883
   XZ=     0.4974   YZ=    -0.3232   ZZ=    31.9424
   Eigenvalues:    17.9833    18.7914    32.1098
     24  H    Isotropic =    23.0215   Anisotropy =    14.2260
   XX=    17.8364   YX=    -0.0026   ZX=     0.0029
   XY=    -0.0061   YY=    18.9651   ZY=     2.4027
   XZ=    -0.0004   YZ=     1.2205   ZZ=    32.2631
   Eigenvalues:    17.8363    18.7228    32.5055
     25  H    Isotropic =    23.2945   Anisotropy =    10.2002
   XX=    19.9196   YX=     0.0027   ZX=    -0.0001
   XY=     0.0020   YY=    19.8700   ZY=     0.0763
   XZ=    -0.0004   YZ=     0.1082   ZZ=    30.0938
   Eigenvalues:    19.8691    19.9197    30.0946
     26  H    Isotropic =    22.9594   Anisotropy =    13.7231
   XX=    18.7229   YX=     0.4068   ZX=    -2.0562
   XY=     0.4271   YY=    18.2144   ZY=    -1.1846
   XZ=    -0.4991   YZ=    -0.3206   ZZ=    31.9409
   Eigenvalues:    17.9802    18.7899    32.1081
     27  H    Isotropic =    26.4695   Anisotropy =    10.5673
   XX=    20.6504   YX=    -3.4158   ZX=    -4.9944
   XY=    -7.0567   YY=    26.8780   ZY=    -1.9352
   XZ=    -3.4314   YZ=     0.6469   ZZ=    31.8803
   Eigenvalues:    16.6216    29.2726    33.5144
     28  H    Isotropic =    25.9133   Anisotropy =    10.5793
   XX=    19.3957   YX=     6.4707   ZX=    -5.0553
   XY=     6.4362   YY=    26.8107   ZY=     2.9559
   XZ=    -3.5333   YZ=     2.0818   ZZ=    31.5337
   Eigenvalues:    14.2284    30.5455    32.9662
     29  H    Isotropic =    26.5243   Anisotropy =    10.9197
   XX=    29.8383   YX=    -1.7367   ZX=    -0.7447
   XY=     1.8720   YY=    17.6632   ZY=     5.2847
   XZ=    -2.5720   YZ=     2.9628   ZZ=    32.0713
   Eigenvalues:    16.5480    29.2207    33.8041
     30  H    Isotropic =    26.4656   Anisotropy =    10.5686
   XX=    20.6633   YX=     3.4163   ZX=     4.9888
   XY=     7.0615   YY=    26.8534   ZY=    -1.9420
   XZ=     3.4310   YZ=     0.6430   ZZ=    31.8800
   Eigenvalues:    16.6241    29.2614    33.5113
     31  H    Isotropic =    25.9151   Anisotropy =    10.5805
   XX=    19.3773   YX=    -6.4621   ZX=     5.0603
   XY=    -6.4293   YY=    26.8319   ZY=     2.9481
   XZ=     3.5371   YZ=     2.0780   ZZ=    31.5361
   Eigenvalues:    14.2265    30.5501    32.9688
     32  H    Isotropic =    26.5256   Anisotropy =    10.9205
   XX=    29.8429   YX=     1.7211   ZX=     0.7508
   XY=    -1.8838   YY=    17.6608   ZY=     5.2839
   XZ=     2.5759   YZ=     2.9590   ZZ=    32.0729
   Eigenvalues:    16.5460    29.2248    33.8059
     33  H    Isotropic =    26.5221   Anisotropy =    10.7685
   XX=    20.7443   YX=    -7.1764   ZX=    -4.1650
   XY=    -3.4800   YY=    26.7686   ZY=    -3.3411
   XZ=    -1.3157   YZ=    -3.4137   ZZ=    32.0533
   Eigenvalues:    16.5551    29.3100    33.7011
     34  H    Isotropic =    26.0176   Anisotropy =    10.5742
   XX=    30.5436   YX=    -0.0080   ZX=    -0.0035
   XY=    -0.0076   YY=    15.7563   ZY=    -5.8501
   XZ=    -0.0013   YZ=    -3.6888   ZZ=    31.7530
   Eigenvalues:    14.4422    30.5436    33.0671
     35  H    Isotropic =    26.5187   Anisotropy =    10.7708
   XX=    20.7555   YX=     7.1831   ZX=     4.1588
   XY=     3.4804   YY=    26.7490   ZY=    -3.3458
   XZ=     1.3093   YZ=    -3.4178   ZZ=    32.0516
   Eigenvalues:    16.5559    29.3009    33.6993
     36  Bq   Isotropic =     0.9553   Anisotropy =    10.8735
   XX=    -2.0390   YX=    -0.0005   ZX=    -0.0015
   XY=    -0.0010   YY=    -3.0234   ZY=    -1.6180
   XZ=    -0.0024   YZ=    -1.9033   ZZ=     7.9282
   Eigenvalues:    -3.2995    -2.0390     8.2043
     37  Bq   Isotropic =     0.9497   Anisotropy =    10.8080
   XX=    -2.1738   YX=    -0.0004   ZX=    -0.0013
   XY=    -0.0009   YY=    -2.9323   ZY=    -1.3579
   XZ=    -0.0024   YZ=    -1.6189   ZZ=     7.9552
   Eigenvalues:    -3.1321    -2.1738     8.1550
     38  Bq   Isotropic =     0.9320   Anisotropy =    10.7172
   XX=    -2.3145   YX=    -0.0003   ZX=    -0.0011
   XY=    -0.0008   YY=    -2.8211   ZY=    -1.1298
   XZ=    -0.0024   YZ=    -1.3859   ZZ=     7.9317
   Eigenvalues:    -2.9663    -2.3145     8.0768
     39  Bq   Isotropic =     0.9081   Anisotropy =    10.6147
   XX=    -2.4530   YX=    -0.0001   ZX=    -0.0010
   XY=    -0.0007   YY=    -2.6997   ZY=    -0.9372
   XZ=    -0.0024   YZ=    -1.2072   ZZ=     7.8769
   Eigenvalues:    -2.8073    -2.4530     7.9845
     40  Bq   Isotropic =     0.8845   Anisotropy =    10.5133
   XX=    -2.5797   YX=     0.0000   ZX=    -0.0009
   XY=    -0.0006   YY=    -2.5775   ZY=    -0.7804
   XZ=    -0.0024   YZ=    -1.0801   ZZ=     7.8107
   Eigenvalues:    -2.6602    -2.5797     7.8934
     41  Bq   Isotropic =     0.8677   Anisotropy =    10.4248
   XX=    -2.6849   YX=     0.0001   ZX=    -0.0008
   XY=    -0.0005   YY=    -2.4631   ZY=    -0.6571
   XZ=    -0.0024   YZ=    -0.9971   ZZ=     7.7510
   Eigenvalues:    -2.6849    -2.5296     7.8176
     42  Bq   Isotropic =     0.8629   Anisotropy =    10.3586
   XX=    -2.7603   YX=     0.0001   ZX=    -0.0007
   XY=    -0.0004   YY=    -2.3634   ZY=    -0.5626
   XZ=    -0.0024   YZ=    -0.9469   ZZ=     7.7124
   Eigenvalues:    -2.7603    -2.4196     7.7686
     43  Bq   Isotropic =     0.8734   Anisotropy =    10.3206
   XX=    -2.8005   YX=     0.0001   ZX=    -0.0007
   XY=    -0.0003   YY=    -2.2839   ZY=    -0.4907
   XZ=    -0.0024   YZ=    -0.9151   ZZ=     7.7045
   Eigenvalues:    -2.8005    -2.3331     7.7538
     44  Bq   Isotropic =     0.8999   Anisotropy =    10.3132
   XX=    -2.8039   YX=     0.0001   ZX=    -0.0006
   XY=    -0.0003   YY=    -2.2283   ZY=    -0.4340
   XZ=    -0.0024   YZ=    -0.8860   ZZ=     7.7318
   Eigenvalues:    -2.8039    -2.2718     7.7753
     45  Bq   Isotropic =     0.9404   Anisotropy =    10.3347
   XX=    -2.7731   YX=     0.0000   ZX=    -0.0005
   XY=    -0.0002   YY=    -2.1983   ZY=    -0.3846
   XZ=    -0.0023   YZ=    -0.8433   ZZ=     7.7926
   Eigenvalues:    -2.7731    -2.2359     7.8302
     46  Bq   Isotropic =     0.9904   Anisotropy =    10.3795
   XX=    -2.7145   YX=     0.0000   ZX=    -0.0005
   XY=    -0.0002   YY=    -2.1940   ZY=    -0.3349
   XZ=    -0.0021   YZ=    -0.7719   ZZ=     7.8798
   Eigenvalues:    -2.7145    -2.2243     7.9101
     47  Bq   Isotropic =     1.0433   Anisotropy =    10.4386
   XX=    -2.6377   YX=    -0.0001   ZX=    -0.0004
   XY=    -0.0001   YY=    -2.2132   ZY=    -0.2779
   XZ=    -0.0019   YZ=    -0.6590   ZZ=     7.9809
   Eigenvalues:    -2.6377    -2.2347     8.0023
     48  Bq   Isotropic =     1.0911   Anisotropy =    10.5000
   XX=    -2.5537   YX=    -0.0002   ZX=    -0.0003
   XY=    -0.0001   YY=    -2.2521   ZY=    -0.2076
   XZ=    -0.0016   YZ=    -0.4954   ZZ=     8.0791
   Eigenvalues:    -2.5537    -2.2641     8.0911
     49  Bq   Isotropic =     1.1257   Anisotropy =    10.5502
   XX=    -2.4735   YX=    -0.0003   ZX=    -0.0001
   XY=     0.0000   YY=    -2.3048   ZY=    -0.1199
   XZ=    -0.0012   YZ=    -0.2771   ZZ=     8.1554
   Eigenvalues:    -2.4735    -2.3085     8.1592
     50  Bq   Isotropic =     1.1397   Anisotropy =    10.5759
   XX=    -2.3955   YX=    -0.0004   ZX=     0.0000
   XY=     0.0001   YY=    -2.3756   ZY=     0.0107
   XZ=    -0.0007   YZ=     0.0546   ZZ=     8.1902
   Eigenvalues:    -2.3955    -2.3757     8.1903
     51  Bq   Isotropic =     1.1223   Anisotropy =    10.5534
   XX=    -2.3532   YX=    -0.0004   ZX=     0.0002
   XY=     0.0002   YY=    -2.4314   ZY=     0.1395
   XZ=    -0.0001   YZ=     0.3790   ZZ=     8.1516
   Eigenvalues:    -2.4377    -2.3532     8.1579
     52  Bq   Isotropic =     1.0760   Anisotropy =    10.4801
   XX=    -2.3351   YX=    -0.0004   ZX=     0.0003
   XY=     0.0003   YY=    -2.4754   ZY=     0.2822
   XZ=     0.0004   YZ=     0.7321   ZZ=     8.0383
   Eigenvalues:    -2.4998    -2.3351     8.0627
     53  Bq   Isotropic =     1.0011   Anisotropy =    10.3499
   XX=    -2.3408   YX=    -0.0004   ZX=     0.0004
   XY=     0.0004   YY=    -2.5008   ZY=     0.4321
   XZ=     0.0011   YZ=     1.0953   ZZ=     7.8450
   Eigenvalues:    -2.5569    -2.3408     7.9011
     54  Bq   Isotropic =     0.9011   Anisotropy =    10.1615
   XX=    -2.3678   YX=    -0.0003   ZX=     0.0005
   XY=     0.0005   YY=    -2.5032   ZY=     0.5810
   XZ=     0.0016   YZ=     1.4483   ZZ=     7.5743
   Eigenvalues:    -2.6043    -2.3678     7.6754
     55  Bq   Isotropic =     0.7810   Anisotropy =     9.9181
   XX=    -2.4117   YX=    -0.0002   ZX=     0.0006
   XY=     0.0006   YY=    -2.4811   ZY=     0.7199
   XZ=     0.0022   YZ=     1.7715   ZZ=     7.2360
   Eigenvalues:    -2.6383    -2.4117     7.3931
     56  Bq   Isotropic =     0.6474   Anisotropy =     9.6278
   XX=    -2.4676   YX=     0.0000   ZX=     0.0007
   XY=     0.0007   YY=    -2.4367   ZY=     0.8406
   XZ=     0.0026   YZ=     2.0480   ZZ=     6.8464
   Eigenvalues:    -2.6562    -2.4676     7.0659
     57  Bq   Isotropic =     0.5068   Anisotropy =     9.3020
   XX=    -2.5305   YX=     0.0001   ZX=     0.0007
   XY=     0.0007   YY=    -2.3749   ZY=     0.9365
   XZ=     0.0030   YZ=     2.2657   ZZ=     6.4259
   Eigenvalues:    -2.6571    -2.5305     6.7081
     58  Bq   Isotropic =     0.3655   Anisotropy =     8.9546
   XX=    -2.5964   YX=     0.0003   ZX=     0.0008
   XY=     0.0008   YY=    -2.3035   ZY=     1.0039
   XZ=     0.0032   YZ=     2.4179   ZZ=     5.9964
   Eigenvalues:    -2.6423    -2.5964     6.3353
     59  Bq   Isotropic =     0.2286   Anisotropy =     8.6012
   XX=    -2.6619   YX=     0.0005   ZX=     0.0008
   XY=     0.0008   YY=    -2.2314   ZY=     1.0420
   XZ=     0.0033   YZ=     2.5036   ZZ=     5.5792
   Eigenvalues:    -2.6619    -2.6150     5.9627
     60  Bq   Isotropic =     0.0999   Anisotropy =     8.2576
   XX=    -2.7249   YX=     0.0006   ZX=     0.0007
   XY=     0.0008   YY=    -2.1681   ZY=     1.0530
   XZ=     0.0033   YZ=     2.5269   ZZ=     5.1928
   Eigenvalues:    -2.7249    -2.5803     5.6050
     61  Bq   Isotropic =    -0.0180   Anisotropy =     7.9397
   XX=    -2.7838   YX=     0.0007   ZX=     0.0007
   XY=     0.0008   YY=    -2.1224   ZY=     1.0419
   XZ=     0.0033   YZ=     2.4955   ZZ=     4.8522
   Eigenvalues:    -2.7838    -2.5453     5.2751
     62  Bq   Isotropic =    -0.1235   Anisotropy =     7.6629
   XX=    -2.8377   YX=     0.0008   ZX=     0.0006
   XY=     0.0007   YY=    -2.1015   ZY=     1.0158
   XZ=     0.0031   YZ=     2.4201   ZZ=     4.5686
   Eigenvalues:    -2.8377    -2.5179     4.9851
     63  Bq   Isotropic =    -0.2157   Anisotropy =     7.4419
   XX=    -2.8864   YX=     0.0009   ZX=     0.0006
   XY=     0.0006   YY=    -2.1103   ZY=     0.9831
   XZ=     0.0029   YZ=     2.3126   ZZ=     4.3495
   Eigenvalues:    -2.8864    -2.5064     4.7456
     64  Bq   Isotropic =    -0.3046   Anisotropy =     7.2734
   XX=    -2.9358   YX=     0.0009   ZX=     0.0005
   XY=     0.0006   YY=    -2.1603   ZY=     0.9498
   XZ=     0.0026   YZ=     2.1661   ZZ=     4.1823
   Eigenvalues:    -2.9358    -2.5223     4.5444
     65  Bq   Isotropic =    -0.3662   Anisotropy =     7.2129
   XX=    -2.9734   YX=     0.0008   ZX=     0.0005
   XY=     0.0005   YY=    -2.2376   ZY=     0.9356
   XZ=     0.0023   YZ=     2.0338   ZZ=     4.1125
   Eigenvalues:    -2.9734    -2.5676     4.4425
     66  Bq   Isotropic =    -0.4126   Anisotropy =     7.2383
   XX=    -3.0064   YX=     0.0008   ZX=     0.0005
   XY=     0.0004   YY=    -2.3425   ZY=     0.9448
   XZ=     0.0021   YZ=     1.9107   ZZ=     4.1112
   Eigenvalues:    -3.0064    -2.6442     4.4129
     67  Bq   Isotropic =    -0.4431   Anisotropy =     7.3495
   XX=    -3.0357   YX=     0.0007   ZX=     0.0005
   XY=     0.0003   YY=    -2.4682   ZY=     0.9859
   XZ=     0.0018   YZ=     1.8093   ZZ=     4.1745
   Eigenvalues:    -3.0357    -2.7502     4.4566
     68  Bq   Isotropic =    -0.4571   Anisotropy =     7.5410
   XX=    -3.0618   YX=     0.0006   ZX=     0.0006
   XY=     0.0002   YY=    -2.6052   ZY=     1.0659
   XZ=     0.0016   YZ=     1.7416   ZZ=     4.2956
   Eigenvalues:    -3.0618    -2.8798     4.5702
     69  Bq   Isotropic =    -0.4541   Anisotropy =     7.8018
   XX=    -3.0852   YX=     0.0005   ZX=     0.0007
   XY=     0.0001   YY=    -2.7420   ZY=     1.1895
   XZ=     0.0014   YZ=     1.7181   ZZ=     4.4648
   Eigenvalues:    -3.0852    -3.0242     4.7470
     70  Bq   Isotropic =    -0.4342   Anisotropy =     8.1167
   XX=    -3.1062   YX=     0.0004   ZX=     0.0008
   XY=     0.0000   YY=    -2.8658   ZY=     1.3589
   XZ=     0.0013   YZ=     1.7470   ZZ=     4.6695
   Eigenvalues:    -3.1733    -3.1062     4.9770
     71  Bq   Isotropic =    -0.3978   Anisotropy =     8.4681
   XX=    -3.1245   YX=     0.0003   ZX=     0.0010
   XY=     0.0000   YY=    -2.9632   ZY=     1.5729
   XZ=     0.0013   YZ=     1.8336   ZZ=     4.8943
   Eigenvalues:    -3.3165    -3.1245     5.2476
     72  Bq   Isotropic =    -0.3465   Anisotropy =     8.8371
   XX=    -3.1399   YX=     0.0002   ZX=     0.0012
   XY=     0.0000   YY=    -3.0217   ZY=     1.8273
   XZ=     0.0013   YZ=     1.9790   ZZ=     5.1222
   Eigenvalues:    -3.4445    -3.1399     5.5450
     73  Bq   Isotropic =    -0.2823   Anisotropy =     9.2051
   XX=    -3.1515   YX=     0.0002   ZX=     0.0014
   XY=     0.0000   YY=    -3.0310   ZY=     2.1144
   XZ=     0.0014   YZ=     2.1801   ZZ=     5.3355
   Eigenvalues:    -3.5499    -3.1515     5.8544
     74  Bq   Isotropic =    -0.2084   Anisotropy =     9.5548
   XX=    -3.1588   YX=     0.0002   ZX=     0.0016
   XY=     0.0000   YY=    -2.9839   ZY=     2.4241
   XZ=     0.0015   YZ=     2.4294   ZZ=     5.5176
   Eigenvalues:    -3.6279    -3.1588     6.1615
     75  Bq   Isotropic =    -0.1284   Anisotropy =     9.8713
   XX=    -3.1614   YX=     0.0002   ZX=     0.0019
   XY=     0.0001   YY=    -2.8773   ZY=     2.7446
   XZ=     0.0016   YZ=     2.7154   ZZ=     5.6537
   Eigenvalues:    -3.6761    -3.1614     6.4525
     76  Bq   Isotropic =    -0.0463   Anisotropy =    10.1428
   XX=    -3.1594   YX=     0.0003   ZX=     0.0021
   XY=     0.0002   YY=    -2.7123   ZY=     3.0636
   XZ=     0.0018   YZ=     3.0240   ZZ=     5.7328
   Eigenvalues:    -3.6950    -3.1594     6.7155
     77  Bq   Isotropic =     0.0336   Anisotropy =    10.3611
   XX=    -3.1533   YX=     0.0004   ZX=     0.0023
   XY=     0.0003   YY=    -2.4941   ZY=     3.3697
   XZ=     0.0019   YZ=     3.3399   ZZ=     5.7482
   Eigenvalues:    -3.6869    -3.1533     6.9410
 End of Minotr F.D. properties file   721 does not exist.
 End of Minotr F.D. properties file   722 does not exist.
 End of Minotr F.D. properties file   788 does not exist.

 **********************************************************************

            Population analysis using the SCF density.

 **********************************************************************

 Alpha  occ. eigenvalues --  -10.13119 -10.13119 -10.13117 -10.13114 -10.13114
 Alpha  occ. eigenvalues --  -10.13112 -10.12927 -10.12918 -10.12917 -10.12916
 Alpha  occ. eigenvalues --  -10.12817 -10.12817 -10.12802  -0.96121  -0.89756
 Alpha  occ. eigenvalues --   -0.89754  -0.82166  -0.82166  -0.81857  -0.73253
 Alpha  occ. eigenvalues --   -0.66961  -0.66151  -0.66151  -0.56710  -0.55992
 Alpha  occ. eigenvalues --   -0.55991  -0.52531  -0.52531  -0.49053  -0.49051
 Alpha  occ. eigenvalues --   -0.47938  -0.43265  -0.43049  -0.43047  -0.42649
 Alpha  occ. eigenvalues --   -0.42648  -0.42632  -0.42223  -0.38553  -0.38550
 Alpha  occ. eigenvalues --   -0.37314  -0.33710  -0.32473  -0.32471  -0.27152
 Alpha  occ. eigenvalues --   -0.26279  -0.26279  -0.18687  -0.18685  -0.12105
 Alpha virt. eigenvalues --   -0.06052  -0.00858  -0.00856   0.00628   0.02535
 Alpha virt. eigenvalues --    0.02536   0.02887   0.02889   0.03740   0.05269
 Alpha virt. eigenvalues --    0.05310   0.06404   0.06405   0.07131   0.07133
 Alpha virt. eigenvalues --    0.07415   0.08434   0.08437   0.10699   0.10700
 Alpha virt. eigenvalues --    0.11029   0.11941   0.12075   0.13166   0.13168
 Alpha virt. eigenvalues --    0.14451   0.14451   0.14913   0.15866   0.15989
 Alpha virt. eigenvalues --    0.17101   0.17129   0.17130   0.17557   0.17560
 Alpha virt. eigenvalues --    0.17913   0.18504   0.18510   0.19231   0.19238
 Alpha virt. eigenvalues --    0.19431   0.19622   0.21564   0.21565   0.21645
 Alpha virt. eigenvalues --    0.22024   0.22024   0.23038   0.23806   0.23813
 Alpha virt. eigenvalues --    0.24366   0.24368   0.25155   0.25719   0.25719
 Alpha virt. eigenvalues --    0.26496   0.27173   0.27177   0.29082   0.29086
 Alpha virt. eigenvalues --    0.29866   0.30523   0.30540   0.31331   0.31631
 Alpha virt. eigenvalues --    0.31632   0.31647   0.33826   0.34597   0.34602
 Alpha virt. eigenvalues --    0.34791   0.35213   0.35214   0.37691   0.39361
 Alpha virt. eigenvalues --    0.39375   0.39482   0.40324   0.40329   0.41752
 Alpha virt. eigenvalues --    0.41787   0.44179   0.44180   0.46106   0.46719
 Alpha virt. eigenvalues --    0.47125   0.47127   0.47993   0.50810   0.50810
 Alpha virt. eigenvalues --    0.53288   0.53833   0.53838   0.54341   0.57369
 Alpha virt. eigenvalues --    0.57374   0.62590   0.63811   0.63813   0.66463
 Alpha virt. eigenvalues --    0.67361   0.67364   0.68129   0.68838   0.68840
 Alpha virt. eigenvalues --    0.70399   0.70401   0.70701   0.71545   0.73033
 Alpha virt. eigenvalues --    0.73035   0.74431   0.74434   0.75579   0.75952
 Alpha virt. eigenvalues --    0.77540   0.77544   0.77562   0.78346   0.78348
 Alpha virt. eigenvalues --    0.78701   0.79699   0.80611   0.81981   0.81990
 Alpha virt. eigenvalues --    0.83368   0.83369   0.84490   0.85050   0.87175
 Alpha virt. eigenvalues --    0.87176   0.87595   0.87598   0.90484   0.90486
 Alpha virt. eigenvalues --    0.91017   0.93899   0.93901   0.96595   0.96597
 Alpha virt. eigenvalues --    0.96819   0.98350   0.99594   1.00504   1.00507
 Alpha virt. eigenvalues --    1.05790   1.08152   1.08157   1.08432   1.10243
 Alpha virt. eigenvalues --    1.11219   1.11223   1.14922   1.14925   1.15652
 Alpha virt. eigenvalues --    1.17971   1.17976   1.24156   1.24159   1.24235
 Alpha virt. eigenvalues --    1.26197   1.30728   1.30731   1.38195   1.38197
 Alpha virt. eigenvalues --    1.40480   1.41510   1.41514   1.42034   1.48713
 Alpha virt. eigenvalues --    1.48716   1.49112   1.50261   1.50263   1.51802
 Alpha virt. eigenvalues --    1.56212   1.56220   1.57658   1.60632   1.60634
 Alpha virt. eigenvalues --    1.60927   1.67481   1.67482   1.72672   1.75931
 Alpha virt. eigenvalues --    1.79465   1.79465   1.79479   1.79821   1.83439
 Alpha virt. eigenvalues --    1.83441   1.86672   1.87253   1.87258   1.89924
 Alpha virt. eigenvalues --    1.89927   1.93160   1.94395   1.94404   1.98386
 Alpha virt. eigenvalues --    2.02181   2.03467   2.03473   2.05195   2.05199
 Alpha virt. eigenvalues --    2.05865   2.05868   2.13289   2.14320   2.18095
 Alpha virt. eigenvalues --    2.31809   2.31812   2.33302   2.33306   2.35884
 Alpha virt. eigenvalues --    2.36059   2.36061   2.42481   2.45510   2.45521
 Alpha virt. eigenvalues --    2.48420   2.48425   2.51748   2.52522   2.59474
 Alpha virt. eigenvalues --    2.62737   2.62738   2.68259   2.68718   2.68721
 Alpha virt. eigenvalues --    2.72106   2.73624   2.73630   2.78687   2.80042
 Alpha virt. eigenvalues --    2.80046   2.85194   2.87667   2.87672   2.89523
 Alpha virt. eigenvalues --    2.94554   2.94556   2.98848   2.98855   3.09032
 Alpha virt. eigenvalues --    3.16327   3.16329   3.21768   3.21780   3.22292
 Alpha virt. eigenvalues --    3.28115   3.29261   3.31850   3.31853   3.34362
 Alpha virt. eigenvalues --    3.37129   3.37131   3.37174   3.40061   3.40067
 Alpha virt. eigenvalues --    3.41234   3.50130   3.50141   3.52857   3.62432
 Alpha virt. eigenvalues --    3.62433   3.70571   3.70579   3.72205   3.77483
 Alpha virt. eigenvalues --    3.78179   3.78186   3.90005   3.95348   4.01179
 Alpha virt. eigenvalues --    4.01184   4.07467   4.07471   4.29062   4.29072
 Alpha virt. eigenvalues --    4.38285   4.70625   4.78401   4.78408  23.34158
 Alpha virt. eigenvalues --   23.80877  23.80899  24.08572  24.08575  24.11264
 Alpha virt. eigenvalues --   24.12969  24.17319  24.17326  24.19197  24.21199
 Alpha virt. eigenvalues --   24.22936  24.22943
     Molecular Orbital Coefficients:
                           1         2         3         4         5
                           O         O         O         O         O
     Eigenvalues --   -10.13119 -10.13119 -10.13117 -10.13114 -10.13114
   1 1   C  1S          0.35046  -0.16041   0.18752   0.27420  -0.13358
   2        2S          0.28849  -0.13202   0.15450   0.22559  -0.10991
   3        2PX        -0.00013   0.00010  -0.00001  -0.00008   0.00005
   4        2PY         0.00012  -0.00026   0.00000  -0.00011   0.00017
   5        2PZ         0.00026  -0.00013   0.00012   0.00017  -0.00008
   6        3S          0.01426  -0.00695   0.00649   0.01168  -0.00536
   7        3PX         0.00155  -0.00098   0.00035   0.00121  -0.00067
   8        3PY         0.00013   0.00119   0.00045   0.00141  -0.00135
   9        3PZ         0.00008   0.00002   0.00013   0.00016  -0.00010
  10        4S         -0.03929   0.03056  -0.00602  -0.02510   0.00201
  11        4PX        -0.01276   0.01215  -0.00110  -0.00607  -0.00118
  12        4PY        -0.00407   0.00292  -0.00330  -0.00083  -0.00139
  13        4PZ        -0.00415   0.00222  -0.00096  -0.00389   0.00051
  14        5S         -0.00147   0.01738   0.03695  -0.03672   0.01764
  15        5PX         0.00135   0.00746   0.00541  -0.00914   0.00535
  16        5PY        -0.00637  -0.00601  -0.00344   0.00324  -0.00284
  17        5PZ         0.00003   0.00078   0.00159  -0.00110   0.00012
  18        6D 0       -0.00045   0.00016  -0.00024  -0.00052   0.00031
  19        6D+1       -0.00001  -0.00003  -0.00003  -0.00002  -0.00002
  20        6D-1       -0.00004   0.00000  -0.00005  -0.00003   0.00005
  21        6D+2        0.00006  -0.00039  -0.00011  -0.00068   0.00053
  22        6D-2       -0.00057   0.00067  -0.00001  -0.00041  -0.00002
  23 2   C  1S          0.07719  -0.05099   0.04212   0.00115   0.01865
  24        2S          0.06375  -0.04211   0.03488   0.00092   0.01537
  25        2PX         0.00004  -0.00019   0.00012  -0.00037   0.00025
  26        2PY        -0.00028  -0.00011  -0.00014  -0.00058   0.00043
  27        2PZ        -0.00003   0.00002  -0.00001   0.00001   0.00001
  28        3S          0.00201  -0.00134   0.00074   0.00021   0.00070
  29        3PX         0.00055   0.00050  -0.00040   0.00164  -0.00085
  30        3PY         0.00093   0.00090   0.00051   0.00239  -0.00193
  31        3PZ         0.00029  -0.00019   0.00014  -0.00003   0.00003
  32        4S          0.02156  -0.01437   0.00573   0.00259   0.00742
  33        4PX         0.01059  -0.00738   0.00280  -0.00136   0.00353
  34        4PY        -0.00691   0.00395  -0.00195  -0.00295   0.00070
  35        4PZ         0.00100  -0.00068   0.00009   0.00046   0.00079
  36        5S          0.00771  -0.00521  -0.01883  -0.00057  -0.00185
  37        5PX         0.00007  -0.00510  -0.00336   0.00180  -0.00222
  38        5PY        -0.00518  -0.00528   0.00244   0.00390  -0.00259
  39        5PZ         0.00025  -0.00019  -0.00091   0.00045   0.00055
  40        6D 0        0.00041  -0.00027   0.00032  -0.00001   0.00008
  41        6D+1        0.00008  -0.00006  -0.00001  -0.00002   0.00005
  42        6D-1       -0.00007   0.00002   0.00000  -0.00006   0.00003
  43        6D+2        0.00071   0.00024   0.00033   0.00146  -0.00100
  44        6D-2       -0.00015   0.00051  -0.00028   0.00084  -0.00072
  45 3   C  1S          0.22976  -0.22217   0.14023  -0.27031   0.26540
  46        2S          0.18913  -0.18291   0.11558  -0.22244   0.21837
  47        2PX        -0.00033   0.00006  -0.00001  -0.00010  -0.00001
  48        2PY        -0.00004  -0.00004  -0.00002  -0.00016   0.00008
  49        2PZ         0.00019  -0.00016   0.00009  -0.00018   0.00017
  50        3S          0.00966  -0.00886   0.00451  -0.01096   0.01125
  51        3PX         0.00178  -0.00011  -0.00010   0.00084  -0.00020
  52        3PY        -0.00044   0.00095  -0.00022   0.00190  -0.00141
  53        3PZ        -0.00002  -0.00006   0.00010  -0.00016   0.00014
  54        4S         -0.03880   0.02159  -0.00235   0.01536  -0.02805
  55        4PX        -0.00390   0.00102   0.00267   0.00145  -0.00223
  56        4PY         0.01513  -0.00685   0.00184  -0.00226   0.00771
  57        4PZ        -0.00296   0.00256  -0.00042   0.00224  -0.00399
  58        5S         -0.00380  -0.01282   0.04306   0.02314  -0.02752
  59        5PX        -0.00415  -0.01014   0.00706   0.00596  -0.00525
  60        5PY         0.00199   0.00071  -0.00406  -0.00477   0.00508
  61        5PZ        -0.00056  -0.00037   0.00173   0.00028  -0.00093
  62        6D 0       -0.00022   0.00028  -0.00015   0.00052  -0.00046
  63        6D+1        0.00002  -0.00002   0.00002  -0.00006   0.00000
  64        6D-1       -0.00002  -0.00003   0.00004  -0.00002   0.00003
  65        6D+2        0.00040  -0.00019  -0.00004  -0.00051   0.00064
  66        6D-2       -0.00083   0.00010   0.00002  -0.00049   0.00016
  67 4   H  1S          0.00012  -0.00005  -0.00002  -0.00010   0.00012
  68        2S         -0.00063   0.00009  -0.00063  -0.00044   0.00052
  69        3S         -0.00225   0.00015   0.00066  -0.00090  -0.00046
  70 5   C  1S         -0.00127  -0.03170   0.02789  -0.04026   0.00678
  71        2S         -0.00101  -0.02619   0.02321  -0.03309   0.00560
  72        2PX        -0.00081   0.00003   0.00018   0.00007  -0.00045
  73        2PY        -0.00004  -0.00046   0.00015  -0.00041   0.00005
  74        2PZ        -0.00001  -0.00001  -0.00004  -0.00001   0.00000
  75        3S         -0.00037  -0.00099  -0.00021  -0.00313   0.00028
  76        3PX         0.00378  -0.00015  -0.00076  -0.00033   0.00155
  77        3PY         0.00024   0.00211  -0.00023   0.00177  -0.00014
  78        3PZ         0.00003  -0.00002   0.00020   0.00002   0.00002
  79        4S          0.00137  -0.02018   0.00898   0.01205  -0.00096
  80        4PX        -0.02996   0.00148   0.00671   0.00192  -0.01785
  81        4PY        -0.00183  -0.00135  -0.00485  -0.01164   0.00061
  82        4PZ         0.00007  -0.00095  -0.00043   0.00192  -0.00030
  83        5S         -0.00492   0.02403  -0.02319  -0.03039   0.00130
  84        5PX        -0.00297  -0.00531   0.00400   0.00638  -0.02464
  85        5PY        -0.00303   0.01895  -0.02568  -0.00303  -0.00221
  86        5PZ        -0.00074   0.00243  -0.00592   0.00005  -0.00067
  87        6D 0        0.00000  -0.00035   0.00037  -0.00033   0.00007
  88        6D+1       -0.00015   0.00000   0.00003   0.00001  -0.00010
  89        6D-1        0.00000  -0.00002   0.00004  -0.00003   0.00001
  90        6D+2        0.00005   0.00091  -0.00051   0.00075  -0.00011
  91        6D-2        0.00146  -0.00006  -0.00037  -0.00009   0.00121
  92 6   C  1S          0.00055  -0.00032   0.00388  -0.00003   0.00050
  93        2S          0.00049  -0.00029   0.00345  -0.00003   0.00045
  94        2PX        -0.00036   0.00001   0.00003   0.00006   0.00019
  95        2PY        -0.00004  -0.00036  -0.00003  -0.00021   0.00000
  96        2PZ         0.00000   0.00000   0.00003   0.00000   0.00000
  97        3S         -0.00019   0.00012  -0.00134   0.00001  -0.00017
  98        3PX         0.00214  -0.00006  -0.00016  -0.00033  -0.00118
  99        3PY         0.00025   0.00212   0.00016   0.00125  -0.00003
 100        3PZ        -0.00001   0.00000  -0.00006   0.00000  -0.00001
 101        4S         -0.00181   0.00109  -0.01274   0.00012  -0.00161
 102        4PX         0.01033  -0.00139  -0.00394   0.00124   0.01913
 103        4PY        -0.00107   0.01110   0.00064  -0.01885   0.00257
 104        4PZ         0.00034  -0.00021   0.00246  -0.00002   0.00031
 105        5S         -0.01486   0.00911  -0.10581   0.00097  -0.01337
 106        5PX         0.00345  -0.00061  -0.00181   0.00082   0.01006
 107        5PY        -0.00069   0.00384   0.00020  -0.00998   0.00127
 108        5PZ         0.00137  -0.00083   0.00969  -0.00009   0.00122
 109        6D 0        0.00002  -0.00001   0.00011   0.00000   0.00001
 110        6D+1       -0.00006   0.00000   0.00000   0.00001   0.00003
 111        6D-1       -0.00001  -0.00006   0.00000  -0.00003   0.00000
 112        6D+2       -0.00011  -0.00048  -0.00004  -0.00090   0.00008
 113        6D-2       -0.00050  -0.00001  -0.00004   0.00015   0.00088
 114 7   C  1S          0.03328   0.01206   0.03204   0.01339  -0.03145
 115        2S          0.02749   0.00994   0.02661   0.01100  -0.02581
 116        2PX        -0.00059   0.00022  -0.00010  -0.00030   0.00024
 117        2PY         0.00012  -0.00079  -0.00021   0.00026   0.00026
 118        2PZ         0.00000   0.00001  -0.00004   0.00000  -0.00001
 119        3S          0.00111   0.00057   0.00014   0.00117  -0.00283
 120        3PX         0.00267  -0.00096   0.00005   0.00107  -0.00111
 121        3PY        -0.00055   0.00361   0.00070  -0.00077  -0.00101
 122        3PZ         0.00003  -0.00002   0.00019  -0.00001   0.00004
 123        4S          0.01769   0.00743   0.00714  -0.00639   0.01341
 124        4PX        -0.00897   0.01301   0.00551  -0.01125   0.00729
 125        4PY         0.01195  -0.02580  -0.00254   0.01040   0.00980
 126        4PZ         0.00068   0.00041  -0.00068  -0.00084   0.00177
 127        5S         -0.02059  -0.00674  -0.01907   0.01407  -0.03229
 128        5PX         0.01358   0.00998   0.02193  -0.01482   0.00575
 129        5PY         0.01312  -0.00705   0.01192   0.02008   0.00449
 130        5PZ        -0.00255  -0.00035  -0.00588   0.00020  -0.00087
 131        6D 0        0.00037   0.00012   0.00040   0.00010  -0.00024
 132        6D+1       -0.00006   0.00007  -0.00002  -0.00005   0.00001
 133        6D-1        0.00005  -0.00013  -0.00004   0.00007   0.00003
 134        6D+2       -0.00020   0.00144   0.00051  -0.00078  -0.00058
 135        6D-2        0.00116  -0.00041   0.00037   0.00071  -0.00032
 136 8   C  1S          0.10183   0.31965   0.27105  -0.10963  -0.24985
 137        2S          0.08387   0.26308   0.22324  -0.09018  -0.20555
 138        2PX        -0.00011   0.00013   0.00004  -0.00002   0.00021
 139        2PY         0.00007  -0.00026  -0.00008   0.00004  -0.00003
 140        2PZ         0.00006   0.00025   0.00018  -0.00007  -0.00015
 141        3S          0.00365   0.01352   0.01006  -0.00499  -0.01044
 142        3PX         0.00096   0.00026   0.00057  -0.00028  -0.00217
 143        3PY        -0.00036   0.00180   0.00060  -0.00035  -0.00009
 144        3PZ         0.00007   0.00002   0.00014  -0.00004  -0.00017
 145        4S          0.00020  -0.04629  -0.01918   0.01828   0.01577
 146        4PX         0.00044  -0.01172  -0.00681   0.00419   0.00075
 147        4PY         0.00186  -0.01228  -0.00287   0.00418   0.00250
 148        4PZ        -0.00075  -0.00421  -0.00215   0.00264   0.00264
 149        5S          0.01563  -0.02181   0.03361   0.02358   0.01965
 150        5PX        -0.00435  -0.00302  -0.00021   0.00221  -0.00012
 151        5PY         0.01090  -0.00381   0.00448   0.00310   0.00821
 152        5PZ         0.00089  -0.00078   0.00127   0.00078   0.00085
 153        6D 0       -0.00016  -0.00039  -0.00034   0.00017   0.00053
 154        6D+1       -0.00004  -0.00001  -0.00005   0.00000   0.00004
 155        6D-1       -0.00001   0.00002   0.00001   0.00004  -0.00003
 156        6D+2        0.00029  -0.00085  -0.00022   0.00024  -0.00021
 157        6D-2       -0.00013  -0.00015  -0.00015   0.00027   0.00079
 158 9   C  1S          0.01207   0.07843   0.06308  -0.01418   0.01299
 159        2S          0.00999   0.06475   0.05218  -0.01166   0.01073
 160        2PX        -0.00026  -0.00005  -0.00006   0.00016   0.00077
 161        2PY         0.00004   0.00015   0.00021   0.00003   0.00003
 162        2PZ        -0.00001  -0.00003  -0.00002  -0.00001   0.00000
 163        3S          0.00024   0.00211   0.00132  -0.00067   0.00034
 164        3PX         0.00138   0.00020   0.00021  -0.00068  -0.00329
 165        3PY        -0.00011   0.00014  -0.00055  -0.00037  -0.00002
 166        3PZ         0.00005   0.00030   0.00021   0.00000   0.00004
 167        4S          0.00231   0.02326   0.01213  -0.00759   0.00328
 168        4PX        -0.00059  -0.00034  -0.00034   0.00076   0.00345
 169        4PY         0.00153   0.01370   0.00697  -0.00244   0.00169
 170        4PZ         0.00004   0.00109   0.00044  -0.00092   0.00020
 171        5S         -0.00161   0.01361  -0.01592  -0.00017  -0.00152
 172        5PX        -0.00862   0.00043   0.00200   0.00050  -0.00574
 173        5PY        -0.00022   0.00412  -0.00325   0.00026  -0.00029
 174        5PZ        -0.00015   0.00048  -0.00074  -0.00079   0.00001
 175        6D 0        0.00008   0.00040   0.00043  -0.00004   0.00008
 176        6D+1       -0.00002  -0.00001  -0.00001   0.00002   0.00007
 177        6D-1        0.00001   0.00012   0.00003  -0.00003   0.00001
 178        6D+2       -0.00009  -0.00046  -0.00053   0.00008  -0.00010
 179        6D-2        0.00065   0.00013   0.00014  -0.00039  -0.00189
 180 10  C  1S         -0.00855   0.26755   0.21302   0.01298   0.34565
 181        2S         -0.00703   0.22022   0.17550   0.01071   0.28443
 182        2PX        -0.00012  -0.00014  -0.00005   0.00010   0.00018
 183        2PY        -0.00011  -0.00024  -0.00006   0.00005  -0.00002
 184        2PZ         0.00000   0.00021   0.00015   0.00001   0.00022
 185        3S         -0.00019   0.01128   0.00756   0.00009   0.01421
 186        3PX         0.00079   0.00001  -0.00028  -0.00063  -0.00225
 187        3PY         0.00062   0.00167   0.00039  -0.00030   0.00043
 188        3PZ        -0.00004   0.00000   0.00010   0.00003   0.00021
 189        4S         -0.00696  -0.04099  -0.01293   0.00988  -0.02638
 190        4PX         0.00279   0.01081   0.00575  -0.00323   0.00405
 191        4PY        -0.00306  -0.01109  -0.00127   0.00295  -0.00473
 192        4PZ         0.00016  -0.00353  -0.00148   0.00120  -0.00383
 193        5S         -0.00414  -0.00317   0.03980  -0.00050  -0.01370
 194        5PX        -0.00400   0.00204   0.00147   0.00049   0.00046
 195        5PY        -0.00880   0.00006   0.00915   0.00018  -0.00697
 196        5PZ        -0.00041  -0.00060   0.00165   0.00066  -0.00069
 197        6D 0        0.00005  -0.00029  -0.00023  -0.00006  -0.00064
 198        6D+1       -0.00003   0.00001   0.00005   0.00002   0.00006
 199        6D-1        0.00002   0.00002   0.00000   0.00003   0.00003
 200        6D+2       -0.00039  -0.00081  -0.00015   0.00031   0.00004
 201        6D-2       -0.00012   0.00001  -0.00001   0.00006   0.00083
 202 11  C  1S         -0.01919   0.01193   0.03118   0.02613   0.03626
 203        2S         -0.01582   0.00984   0.02594   0.02148   0.02985
 204        2PX        -0.00050  -0.00015   0.00021   0.00040   0.00018
 205        2PY        -0.00021  -0.00068  -0.00008   0.00013  -0.00039
 206        2PZ        -0.00002   0.00001  -0.00004   0.00001   0.00000
 207        3S         -0.00079   0.00044  -0.00026   0.00196   0.00252
 208        3PX         0.00243   0.00066  -0.00054  -0.00161  -0.00083
 209        3PY         0.00094   0.00322   0.00017  -0.00034   0.00152
 210        3PZ         0.00003  -0.00002   0.00020  -0.00001   0.00001
 211        4S         -0.01468   0.01011   0.01465  -0.00595  -0.00859
 212        4PX        -0.00948  -0.01161  -0.00410   0.01288   0.00243
 213        4PY        -0.01258  -0.02193   0.00393   0.00787  -0.01349
 214        4PZ        -0.00089   0.00064  -0.00002  -0.00108  -0.00161
 215        5S          0.01517  -0.01096  -0.03123   0.01699   0.02175
 216        5PX         0.00759  -0.00468  -0.02576   0.00427  -0.00305
 217        5PY        -0.00690   0.00569   0.01524   0.00547  -0.00386
 218        5PZ         0.00072  -0.00052  -0.00638  -0.00009  -0.00075
 219        6D 0       -0.00020   0.00013   0.00041   0.00022   0.00032
 220        6D+1       -0.00005  -0.00005   0.00004   0.00005   0.00000
 221        6D-1       -0.00006  -0.00011  -0.00001   0.00005  -0.00006
 222        6D+2        0.00034   0.00122   0.00025  -0.00050   0.00092
 223        6D-2        0.00090   0.00025  -0.00060  -0.00087  -0.00025
 224 12  C  1S         -0.24752  -0.10740   0.24133   0.31430   0.11352
 225        2S         -0.20373  -0.08839   0.19879   0.25861   0.09346
 226        2PX        -0.00012  -0.00009   0.00003   0.00010   0.00003
 227        2PY        -0.00016  -0.00024   0.00008  -0.00012  -0.00016
 228        2PZ        -0.00019  -0.00009   0.00016   0.00020   0.00007
 229        3S         -0.01035  -0.00469   0.00878   0.01318   0.00413
 230        3PX         0.00126   0.00075  -0.00061  -0.00141  -0.00044
 231        3PY         0.00035   0.00119   0.00008   0.00152   0.00119
 232        3PZ        -0.00001   0.00003   0.00012   0.00018   0.00010
 233        4S          0.03397   0.02355  -0.01666  -0.02756   0.00299
 234        4PX        -0.01182  -0.00986   0.00513   0.00680  -0.00266
 235        4PY         0.00303   0.00234  -0.00461  -0.00106   0.00079
 236        4PZ         0.00318   0.00140  -0.00196  -0.00399   0.00013
 237        5S          0.00852   0.00153   0.03894  -0.01772  -0.00115
 238        5PX         0.00033  -0.00526  -0.00672   0.00624   0.00161
 239        5PY         0.00493  -0.00685  -0.00551   0.00273   0.00054
 240        5PZ         0.00031   0.00070   0.00150  -0.00100   0.00057
 241        6D 0        0.00029   0.00009  -0.00027  -0.00058  -0.00025
 242        6D+1        0.00000   0.00004   0.00003   0.00001  -0.00002
 243        6D-1        0.00002   0.00000  -0.00004  -0.00005  -0.00005
 244        6D+2       -0.00024  -0.00040   0.00006  -0.00067  -0.00042
 245        6D-2       -0.00052  -0.00055   0.00019   0.00042  -0.00014
 246 13  C  1S         -0.06553  -0.04251   0.06704   0.01156  -0.00960
 247        2S         -0.05410  -0.03511   0.05544   0.00952  -0.00787
 248        2PX         0.00008   0.00020  -0.00019   0.00036   0.00015
 249        2PY         0.00012  -0.00015  -0.00009  -0.00063  -0.00034
 250        2PZ         0.00002   0.00001  -0.00002   0.00000  -0.00001
 251        3S         -0.00177  -0.00109   0.00147   0.00043  -0.00058
 252        3PX         0.00031  -0.00062   0.00045  -0.00169  -0.00041
 253        3PY        -0.00026   0.00104   0.00022   0.00260   0.00156
 254        3PZ        -0.00025  -0.00016   0.00022   0.00002   0.00001
 255        4S         -0.01941  -0.01156   0.01351   0.00471  -0.00678
 256        4PX         0.01004   0.00624  -0.00663  -0.00013   0.00272
 257        4PY         0.00583   0.00292  -0.00363  -0.00372  -0.00042
 258        4PZ        -0.00087  -0.00051   0.00057   0.00044  -0.00085
 259        5S         -0.01314  -0.00405  -0.01566   0.00119  -0.00304
 260        5PX         0.00123   0.00540   0.00350  -0.00258  -0.00044
 261        5PY         0.00568  -0.00650   0.00033   0.00402   0.00163
 262        5PZ        -0.00041  -0.00009  -0.00064   0.00035  -0.00084
 263        6D 0       -0.00033  -0.00023   0.00044   0.00005  -0.00001
 264        6D+1        0.00008   0.00006  -0.00003   0.00001   0.00005
 265        6D-1        0.00005   0.00001  -0.00001  -0.00007  -0.00001
 266        6D+2       -0.00032   0.00037   0.00024   0.00156   0.00076
 267        6D-2       -0.00024  -0.00052   0.00049  -0.00083  -0.00048
 268 14  C  1S         -0.23947  -0.21049   0.26746  -0.23354  -0.17482
 269        2S         -0.19708  -0.17329   0.22028  -0.19217  -0.14379
 270        2PX        -0.00030  -0.00002   0.00011   0.00015  -0.00003
 271        2PY         0.00000  -0.00005   0.00000  -0.00017  -0.00005
 272        2PZ        -0.00019  -0.00015   0.00018  -0.00014  -0.00011
 273        3S         -0.01033  -0.00835   0.00997  -0.00942  -0.00784
 274        3PX         0.00157  -0.00009  -0.00036  -0.00112  -0.00002
 275        3PY         0.00075   0.00096  -0.00071   0.00183   0.00096
 276        3PZ         0.00001  -0.00006   0.00012  -0.00018  -0.00007
 277        4S          0.03985   0.01824  -0.02068   0.00986   0.02390
 278        4PX        -0.00473  -0.00066  -0.00077  -0.00079  -0.00250
 279        4PY        -0.01453  -0.00541   0.00806  -0.00013  -0.00666
 280        4PZ         0.00320   0.00236  -0.00230   0.00190   0.00338
 281        5S          0.01664  -0.00039   0.03124   0.00618   0.03333
 282        5PX        -0.00572   0.00989  -0.00426  -0.00456  -0.00478
 283        5PY        -0.00349  -0.00087  -0.00180  -0.00228  -0.00506
 284        5PZ         0.00100  -0.00050   0.00122   0.00031   0.00121
 285        6D 0        0.00027   0.00028  -0.00032   0.00049   0.00031
 286        6D+1        0.00002   0.00001  -0.00003   0.00006  -0.00001
 287        6D-1        0.00002  -0.00004   0.00004  -0.00002  -0.00002
 288        6D+2       -0.00048  -0.00018   0.00024  -0.00044  -0.00053
 289        6D-2       -0.00071   0.00000   0.00018   0.00062   0.00005
 290 15  H  1S         -0.00014  -0.00005   0.00005  -0.00008  -0.00010
 291        2S          0.00035   0.00000  -0.00063  -0.00055  -0.00057
 292        3S          0.00214  -0.00016  -0.00014  -0.00114   0.00075
 293 16  H  1S          0.00024   0.00015  -0.00024  -0.00002  -0.00001
 294        2S         -0.00107  -0.00058   0.00037   0.00004   0.00009
 295        3S         -0.00329  -0.00214   0.00338   0.00050  -0.00032
 296 17  H  1S         -0.00010  -0.00008   0.00003   0.00013   0.00002
 297        2S          0.00022   0.00048  -0.00065   0.00066   0.00008
 298        3S          0.00124   0.00181   0.00009   0.00006   0.00132
 299 18  H  1S          0.00003   0.00012   0.00001  -0.00002   0.00013
 300        2S         -0.00039  -0.00040  -0.00070  -0.00005   0.00057
 301        3S         -0.00111  -0.00195   0.00023   0.00117   0.00039
 302 19  H  1S         -0.00005  -0.00028  -0.00023   0.00000  -0.00004
 303        2S          0.00013   0.00121   0.00035   0.00013   0.00008
 304        3S          0.00063   0.00395   0.00323  -0.00054   0.00063
 305 20  H  1S         -0.00001   0.00015   0.00005  -0.00006  -0.00010
 306        2S          0.00012  -0.00030  -0.00062  -0.00035  -0.00072
 307        3S          0.00112  -0.00199   0.00004   0.00080  -0.00073
 308 21  H  1S         -0.00028   0.00018  -0.00016   0.00002  -0.00003
 309        2S          0.00105  -0.00069   0.00008  -0.00018  -0.00007
 310        3S          0.00390  -0.00257   0.00219  -0.00004   0.00080
 311 22  H  1S          0.00012  -0.00011   0.00000   0.00012  -0.00005
 312        2S         -0.00021   0.00045  -0.00053   0.00075  -0.00035
 313        3S         -0.00091   0.00200   0.00072   0.00001  -0.00107
 314 23  H  1S          0.00007  -0.00004  -0.00013  -0.00022  -0.00030
 315        2S         -0.00003  -0.00006  -0.00041   0.00184   0.00245
 316        3S          0.00039  -0.00021   0.00200  -0.00086  -0.00088
 317 24  H  1S          0.00002   0.00012  -0.00013   0.00035  -0.00005
 318        2S         -0.00030  -0.00006  -0.00014  -0.00304   0.00031
 319        3S          0.00041   0.00002   0.00191   0.00137   0.00010
 320 25  H  1S          0.00004  -0.00002   0.00029   0.00000   0.00004
 321        2S         -0.00028   0.00017  -0.00197   0.00002  -0.00025
 322        3S         -0.00048   0.00029  -0.00339   0.00003  -0.00043
 323 26  H  1S         -0.00015  -0.00005  -0.00017  -0.00013   0.00030
 324        2S          0.00028   0.00015   0.00022   0.00120  -0.00280
 325        3S          0.00000  -0.00029   0.00175  -0.00055   0.00150
 326 27  H  1S         -0.00037   0.00018  -0.00012  -0.00044   0.00015
 327        2S          0.00313  -0.00188   0.00060   0.00331  -0.00085
 328        3S          0.00487  -0.00250   0.00157   0.00419  -0.00143
 329 28  H  1S         -0.00029   0.00019  -0.00012   0.00001  -0.00005
 330        2S          0.00032  -0.00021   0.00004   0.00002   0.00008
 331        3S         -0.00129   0.00087  -0.00042  -0.00050  -0.00092
 332 29  H  1S         -0.00023   0.00022  -0.00005   0.00032  -0.00042
 333        2S          0.00234  -0.00178   0.00011  -0.00223   0.00323
 334        3S          0.00345  -0.00303   0.00091  -0.00336   0.00411
 335 30  H  1S          0.00026   0.00011  -0.00018  -0.00046  -0.00007
 336        2S         -0.00241  -0.00124   0.00125   0.00341   0.00023
 337        3S         -0.00368  -0.00174   0.00251   0.00468   0.00081
 338 31  H  1S          0.00026   0.00016  -0.00021  -0.00004   0.00002
 339        2S         -0.00031  -0.00018   0.00016   0.00006  -0.00008
 340        3S          0.00107   0.00067  -0.00100  -0.00050   0.00091
 341 32  H  1S          0.00027   0.00021  -0.00022   0.00029   0.00033
 342        2S         -0.00265  -0.00166   0.00162  -0.00191  -0.00269
 343        3S         -0.00377  -0.00274   0.00293  -0.00297  -0.00315
 344 33  H  1S         -0.00008  -0.00036  -0.00022   0.00023   0.00036
 345        2S          0.00038   0.00334   0.00155  -0.00194  -0.00252
 346        3S          0.00103   0.00481   0.00290  -0.00214  -0.00353
 347 34  H  1S         -0.00004  -0.00030  -0.00020   0.00004  -0.00004
 348        2S          0.00003   0.00036   0.00014  -0.00008   0.00004
 349        3S         -0.00010  -0.00135  -0.00085   0.00102  -0.00027
 350 35  H  1S          0.00002  -0.00028  -0.00013   0.00006  -0.00046
 351        2S          0.00005   0.00271   0.00087  -0.00069   0.00336
 352        3S         -0.00007   0.00410   0.00202  -0.00053   0.00480
                           6         7         8         9        10
                           O         O         O         O         O
     Eigenvalues --   -10.13112 -10.12927 -10.12918 -10.12917 -10.12916
   1 1   C  1S          0.18100   0.00511   0.01860  -0.05961  -0.03673
   2        2S          0.14890   0.00429   0.01526  -0.04889  -0.03006
   3        2PX        -0.00004   0.00021   0.00008  -0.00013   0.00001
   4        2PY        -0.00004  -0.00024  -0.00021   0.00061   0.00029
   5        2PZ         0.00012   0.00001   0.00005  -0.00008  -0.00007
   6        3S          0.00782  -0.00044   0.00107  -0.00319  -0.00234
   7        3PX         0.00074  -0.00118  -0.00037   0.00064  -0.00022
   8        3PY         0.00074   0.00101   0.00087  -0.00254  -0.00106
   9        3PZ         0.00005   0.00000  -0.00011   0.00010   0.00012
  10        4S         -0.01725   0.00135  -0.00876   0.03303   0.01218
  11        4PX        -0.00436  -0.00002  -0.00415   0.01094   0.00336
  12        4PY        -0.00065  -0.00612  -0.00601   0.00939   0.00050
  13        4PZ        -0.00266   0.00016  -0.00038   0.00225   0.00145
  14        5S         -0.11162   0.00671   0.01803   0.01268   0.06043
  15        5PX        -0.01722  -0.00015   0.00587   0.00463   0.00764
  16        5PY        -0.00141   0.00207  -0.01112  -0.00010   0.00185
  17        5PZ        -0.00022  -0.00044  -0.00060   0.00058  -0.00006
  18        6D 0       -0.00031  -0.00004  -0.00017   0.00056   0.00039
  19        6D+1       -0.00004   0.00003  -0.00001   0.00002   0.00003
  20        6D-1        0.00002   0.00004  -0.00003   0.00010   0.00007
  21        6D+2       -0.00042  -0.00082  -0.00058   0.00131   0.00074
  22        6D-2       -0.00032   0.00042   0.00014  -0.00010   0.00008
  23 2   C  1S         -0.00401  -0.10547  -0.15602   0.44080   0.27537
  24        2S         -0.00331  -0.08667  -0.12836   0.36273   0.22666
  25        2PX        -0.00021   0.00009   0.00007  -0.00015  -0.00010
  26        2PY        -0.00035  -0.00005  -0.00002   0.00010   0.00005
  27        2PZ         0.00000  -0.00003  -0.00010   0.00031   0.00020
  28        3S         -0.00011  -0.00503  -0.00665   0.01818   0.01092
  29        3PX         0.00076  -0.00102  -0.00081   0.00205   0.00123
  30        3PY         0.00132   0.00059   0.00040  -0.00122  -0.00068
  31        3PZ        -0.00001  -0.00017  -0.00004   0.00008   0.00003
  32        4S         -0.00104   0.01331   0.02116  -0.04648  -0.01869
  33        4PX        -0.00195   0.00263   0.00650  -0.01383  -0.00629
  34        4PY        -0.00214  -0.00154  -0.00293   0.00851   0.00326
  35        4PZ        -0.00005   0.00222   0.00221  -0.00566  -0.00314
  36        5S         -0.00035  -0.00924   0.00330  -0.04050  -0.04876
  37        5PX        -0.00248  -0.00018  -0.00324  -0.00952  -0.00761
  38        5PY        -0.00405   0.00036  -0.00652   0.00025   0.00815
  39        5PZ        -0.00001   0.00038   0.00055  -0.00129  -0.00061
  40        6D 0       -0.00002   0.00036   0.00036  -0.00096  -0.00056
  41        6D+1       -0.00004   0.00005   0.00003  -0.00008  -0.00005
  42        6D-1       -0.00006  -0.00003  -0.00001   0.00005   0.00003
  43        6D+2        0.00086   0.00018   0.00017  -0.00051  -0.00030
  44        6D-2        0.00052  -0.00031  -0.00033   0.00087   0.00054
  45 3   C  1S         -0.21008   0.00514   0.02182  -0.05799  -0.03831
  46        2S         -0.17284   0.00431   0.01794  -0.04755  -0.03137
  47        2PX         0.00001   0.00031   0.00028  -0.00056  -0.00028
  48        2PY        -0.00006  -0.00007   0.00005  -0.00019  -0.00016
  49        2PZ        -0.00015   0.00001   0.00001  -0.00010  -0.00005
  50        3S         -0.00901  -0.00044   0.00092  -0.00331  -0.00227
  51        3PX         0.00015  -0.00145  -0.00134   0.00227   0.00100
  52        3PY         0.00110   0.00052  -0.00011   0.00071   0.00072
  53        3PZ        -0.00006  -0.00001   0.00002   0.00019   0.00007
  54        4S          0.02103   0.00158  -0.01690   0.02796   0.01583
  55        4PX         0.00192   0.00533   0.00219  -0.00327   0.00166
  56        4PY        -0.00547   0.00304   0.00781  -0.01341  -0.00370
  57        4PZ         0.00300   0.00017  -0.00085   0.00196   0.00167
  58        5S          0.11175   0.00662   0.01958   0.01376   0.05969
  59        5PX         0.00723  -0.00138  -0.00391  -0.00792   0.00957
  60        5PY        -0.01582  -0.00084  -0.00126  -0.00506  -0.00677
  61        5PZ         0.00023  -0.00045  -0.00036   0.00074  -0.00017
  62        6D 0        0.00035  -0.00004  -0.00018   0.00055   0.00039
  63        6D+1        0.00003  -0.00002   0.00003  -0.00007  -0.00005
  64        6D-1       -0.00003  -0.00004   0.00001  -0.00007  -0.00005
  65        6D+2       -0.00053   0.00005   0.00016  -0.00058  -0.00043
  66        6D-2       -0.00015   0.00093   0.00048  -0.00124  -0.00056
  67 4   H  1S         -0.00010   0.00001   0.00012  -0.00028  -0.00012
  68        2S         -0.00047  -0.00088  -0.00081   0.00092  -0.00050
  69        3S         -0.00008  -0.00101  -0.00172   0.00293   0.00081
  70 5   C  1S          0.00148   0.10300   0.00148  -0.00829   0.02072
  71        2S          0.00121   0.08482   0.00126  -0.00679   0.01714
  72        2PX         0.00047   0.00000   0.00010  -0.00006  -0.00002
  73        2PY         0.00001  -0.00060  -0.00007  -0.00002  -0.00023
  74        2PZ         0.00000  -0.00002   0.00001   0.00003   0.00000
  75        3S          0.00023   0.00399   0.00009  -0.00014   0.00043
  76        3PX        -0.00159   0.00002  -0.00096   0.00054   0.00019
  77        3PY        -0.00002   0.00198   0.00009  -0.00015   0.00068
  78        3PZ         0.00000   0.00028  -0.00003  -0.00008   0.00005
  79        4S         -0.00260   0.00924  -0.01251  -0.02286   0.00100
  80        4PX         0.01186   0.00036  -0.01803   0.01010   0.00347
  81        4PY         0.00103  -0.01630   0.00162   0.00702  -0.01060
  82        4PZ        -0.00025   0.00101   0.00000   0.00001  -0.00012
  83        5S          0.00460   0.00008  -0.00259   0.00346  -0.02360
  84        5PX         0.09216  -0.00024   0.01207  -0.00672  -0.00238
  85        5PY         0.00159  -0.00128   0.00109   0.01518  -0.03849
  86        5PZ         0.00019   0.00140   0.00048  -0.00020   0.00293
  87        6D 0        0.00001   0.00004   0.00006   0.00009   0.00006
  88        6D+1        0.00010   0.00000  -0.00004   0.00002   0.00001
  89        6D-1        0.00000  -0.00022  -0.00006  -0.00006  -0.00008
  90        6D+2       -0.00001   0.00145  -0.00008  -0.00027   0.00021
  91        6D-2       -0.00095   0.00000  -0.00035   0.00020   0.00007
  92 6   C  1S         -0.00004   0.49897   0.06540   0.04034   0.17106
  93        2S         -0.00004   0.41047   0.05384   0.03322   0.14085
  94        2PX         0.00001   0.00000   0.00011  -0.00006  -0.00002
  95        2PY        -0.00001   0.00000   0.00006   0.00011  -0.00004
  96        2PZ         0.00000   0.00025   0.00003   0.00002   0.00006
  97        3S          0.00001   0.02361   0.00275   0.00167   0.00698
  98        3PX        -0.00008   0.00002  -0.00089   0.00050   0.00017
  99        3PY         0.00003   0.00002  -0.00043  -0.00088   0.00033
 100        3PZ         0.00000   0.00005   0.00004   0.00002   0.00011
 101        4S          0.00012  -0.07338  -0.00829  -0.00501  -0.02098
 102        4PX         0.00099  -0.00044   0.02111  -0.01182  -0.00410
 103        4PY         0.00258  -0.00044   0.01026   0.02091  -0.00770
 104        4PZ        -0.00002  -0.01108  -0.00106  -0.00062  -0.00253
 105        5S          0.00102  -0.01321  -0.04823  -0.03296  -0.15291
 106        5PX         0.00053  -0.00001   0.00062  -0.00035  -0.00014
 107        5PY         0.00119   0.00000   0.00030   0.00062  -0.00022
[...]
  50         O                -0.121048          1.669380
  51         V                -0.060524          0.457468
  52         V                -0.008579          0.394454
  53         V                -0.008564          0.394505
  54         V                 0.006283          0.320359
  55         V                 0.025354          0.308307
  56         V                 0.025359          0.308236
  57         V                 0.028873          0.340318
  58         V                 0.028885          0.340558
  59         V                 0.037397          0.209386
  60         V                 0.052693          0.333111
  61         V                 0.053096          0.247132
  62         V                 0.064037          0.245038
  63         V                 0.064053          0.244965
  64         V                 0.071314          0.365395
  65         V                 0.071326          0.365508
  66         V                 0.074151          0.400792
  67         V                 0.084343          0.347101
  68         V                 0.084366          0.347320
  69         V                 0.106991          0.417771
  70         V                 0.107001          0.417854
  71         V                 0.110288          0.366233
  72         V                 0.119409          0.270282
  73         V                 0.120749          0.355055
  74         V                 0.131663          0.348760
  75         V                 0.131678          0.348808
  76         V                 0.144507          0.348314
  77         V                 0.144513          0.348397
  78         V                 0.149127          0.610715
  79         V                 0.158661          0.608001
  80         V                 0.159891          0.672039
  81         V                 0.171008          0.443066
  82         V                 0.171292          0.751178
  83         V                 0.171301          0.750269
  84         V                 0.175573          0.334772
  85         V                 0.175600          0.336130
  86         V                 0.179130          0.408710
  87         V                 0.185039          0.711558
  88         V                 0.185100          0.712806
  89         V                 0.192306          0.627713
  90         V                 0.192384          0.624868
  91         V                 0.194313          0.648161
  92         V                 0.196222          0.776018
  93         V                 0.215637          1.008740
  94         V                 0.215651          1.008406
  95         V                 0.216453          0.816915
  96         V                 0.220235          0.711173
  97         V                 0.220240          0.710809
  98         V                 0.230383          0.737626
  99         V                 0.238065          0.598806
 100         V                 0.238131          0.598336
 101         V                 0.243657          0.825775
 102         V                 0.243679          0.825748
 103         V                 0.251546          0.615575
 104         V                 0.257186          0.847433
 105         V                 0.257192          0.848043
 106         V                 0.264959          1.143916
 107         V                 0.271732          1.030760
 108         V                 0.271767          1.030924
 109         V                 0.290820          0.743596
 110         V                 0.290863          0.745654
 111         V                 0.298661          0.883535
 112         V                 0.305232          1.231411
 113         V                 0.305398          1.234298
 114         V                 0.313313          0.632644
 115         V                 0.316312          1.055021
 116         V                 0.316318          1.054757
 117         V                 0.316472          1.052369
 118         V                 0.338259          0.963518
 119         V                 0.345967          0.862790
 120         V                 0.346019          0.861746
 121         V                 0.347908          0.761596
 122         V                 0.352132          0.970596
 123         V                 0.352139          0.970668
 124         V                 0.376908          0.708978
 125         V                 0.393606          0.995969
 126         V                 0.393750          0.995615
 127         V                 0.394822          1.081084
 128         V                 0.403239          0.939828
 129         V                 0.403290          0.939124
 130         V                 0.417524          1.895440
 131         V                 0.417869          1.383032
 132         V                 0.441787          1.346562
 133         V                 0.441803          1.346783
 134         V                 0.461058          1.263468
 135         V                 0.467192          1.327670
 136         V                 0.471251          1.155605
 137         V                 0.471273          1.155416
 138         V                 0.479929          1.145773
 139         V                 0.508100          1.214022
 140         V                 0.508104          1.214468
 141         V                 0.532876          1.799543
 142         V                 0.538331          1.301676
 143         V                 0.538381          1.301269
 144         V                 0.543415          1.216458
 145         V                 0.573693          1.820280
 146         V                 0.573742          1.820153
 147         V                 0.625905          1.469239
 148         V                 0.638110          1.582624
 149         V                 0.638134          1.582525
 150         V                 0.664625          1.691037
 151         V                 0.673614          1.910339
 152         V                 0.673637          1.910134
 153         V                 0.681291          1.778204
 154         V                 0.688384          1.814381
 155         V                 0.688398          1.814581
 156         V                 0.703995          1.770858
 157         V                 0.704009          1.771231
 158         V                 0.707014          1.842672
 159         V                 0.715449          1.837004
 160         V                 0.730331          2.015208
 161         V                 0.730355          2.015068
 162         V                 0.744310          2.041004
 163         V                 0.744337          2.041070
 164         V                 0.755791          1.846067
 165         V                 0.759518          2.268696
 166         V                 0.775402          2.000640
 167         V                 0.775444          2.004879
 168         V                 0.775619          2.207812
 169         V                 0.783458          2.331420
 170         V                 0.783476          2.331361
 171         V                 0.787009          2.126834
 172         V                 0.796994          2.409962
 173         V                 0.806114          1.709313
 174         V                 0.819807          2.845639
 175         V                 0.819899          2.845043
 176         V                 0.833683          2.210217
 177         V                 0.833695          2.210146
 178         V                 0.844903          2.442657
 179         V                 0.850500          1.845198
 180         V                 0.871748          2.104797
 181         V                 0.871764          2.105541
 182         V                 0.875954          2.688839
 183         V                 0.875982          2.689324
 184         V                 0.904835          1.901078
 185         V                 0.904861          1.901078
 186         V                 0.910174          2.941789
 187         V                 0.938993          1.816977
 188         V                 0.939012          1.816950
 189         V                 0.965953          1.685757
 190         V                 0.965971          1.685818
 191         V                 0.968190          1.912296
 192         V                 0.983501          1.726915
 193         V                 0.995944          2.074067
 194         V                 1.005040          1.882281
 195         V                 1.005071          1.882171
 196         V                 1.057895          2.223238
 197         V                 1.081520          2.076905
 198         V                 1.081572          2.076929
 199         V                 1.084321          1.988461
 200         V                 1.102435          1.893401
 201         V                 1.112192          2.118087
 202         V                 1.112229          2.118180
 203         V                 1.149216          2.172866
 204         V                 1.149251          2.172923
 205         V                 1.156525          2.159562
 206         V                 1.179708          2.278030
 207         V                 1.179757          2.277985
 208         V                 1.241557          2.174737
 209         V                 1.241588          2.174850
 210         V                 1.242352          2.487818
 211         V                 1.261970          2.397274
 212         V                 1.307276          2.513218
 213         V                 1.307311          2.513212
 214         V                 1.381949          2.690182
 215         V                 1.381968          2.690193
 216         V                 1.404802          2.626396
 217         V                 1.415103          2.543211
 218         V                 1.415139          2.543360
 219         V                 1.420337          2.727664
 220         V                 1.487125          2.564598
 221         V                 1.487161          2.564412
 222         V                 1.491124          2.605109
 223         V                 1.502615          2.550549
 224         V                 1.502634          2.550230
 225         V                 1.518023          2.702778
 226         V                 1.562120          2.824205
 227         V                 1.562201          2.824440
 228         V                 1.576581          2.676485
 229         V                 1.606319          2.728716
 230         V                 1.606342          2.728662
 231         V                 1.609270          2.637325
 232         V                 1.674813          2.821746
 233         V                 1.674825          2.821655
 234         V                 1.726724          3.076723
 235         V                 1.759310          3.013882
 236         V                 1.794649          3.137702
 237         V                 1.794653          3.136991
 238         V                 1.794792          3.042070
 239         V                 1.798211          3.160135
 240         V                 1.834391          3.098243
 241         V                 1.834408          3.098174
 242         V                 1.866723          3.247493
 243         V                 1.872529          3.155515
 244         V                 1.872575          3.155428
 245         V                 1.899237          3.177472
 246         V                 1.899266          3.177754
 247         V                 1.931603          3.142233
 248         V                 1.943947          3.239875
 249         V                 1.944038          3.239999
 250         V                 1.983861          3.434941
 251         V                 2.021811          3.474599
 252         V                 2.034675          3.319728
 253         V                 2.034731          3.320193
 254         V                 2.051946          3.912818
 255         V                 2.051990          3.913264
 256         V                 2.058652          3.902653
 257         V                 2.058678          3.902334
 258         V                 2.132892          3.361400
 259         V                 2.143199          3.810518
 260         V                 2.180946          3.856582
 261         V                 2.318095          4.030674
 262         V                 2.318116          4.030309
 263         V                 2.333018          4.301068
 264         V                 2.333062          4.301508
 265         V                 2.358841          4.099543
 266         V                 2.360591          3.591004
 267         V                 2.360608          3.590802
 268         V                 2.424809          4.613078
 269         V                 2.455100          4.418673
 270         V                 2.455211          4.418784
 271         V                 2.484197          4.725170
 272         V                 2.484253          4.725208
 273         V                 2.517477          4.554186
 274         V                 2.525219          4.642978
 275         V                 2.594737          5.120970
 276         V                 2.627373          5.088308
 277         V                 2.627384          5.088311
 278         V                 2.682592          5.049342
 279         V                 2.687178          5.125014
 280         V                 2.687209          5.125368
 281         V                 2.721056          5.427860
 282         V                 2.736237          5.104658
 283         V                 2.736298          5.104869
 284         V                 2.786867          5.367175
 285         V                 2.800424          5.235343
 286         V                 2.800464          5.235778
 287         V                 2.851935          6.015340
 288         V                 2.876666          5.228297
 289         V                 2.876719          5.228307
 290         V                 2.895226          5.489201
 291         V                 2.945545          6.071409
 292         V                 2.945555          6.071545
 293         V                 2.988481          5.354981
 294         V                 2.988546          5.354737
 295         V                 3.090323          5.553587
 296         V                 3.163270          6.038701
 297         V                 3.163295          6.038502
 298         V                 3.217683          7.247461
 299         V                 3.217796          7.247798
 300         V                 3.222920          6.042569
 301         V                 3.281151          7.317416
 302         V                 3.292608          6.639641
 303         V                 3.318498          6.918522
 304         V                 3.318525          6.918506
 305         V                 3.343622          5.584554
 306         V                 3.371286          6.767183
 307         V                 3.371305          6.767170
 308         V                 3.371735          6.641350
 309         V                 3.400609          7.238085
 310         V                 3.400672          7.238097
 311         V                 3.412336          6.496886
 312         V                 3.501297          5.648899
 313         V                 3.501406          5.649134
 314         V                 3.528568          6.537046
 315         V                 3.624324          6.484812
 316         V                 3.624335          6.484954
 317         V                 3.705706          7.133053
 318         V                 3.705786          7.133499
 319         V                 3.722055          7.095215
 320         V                 3.774831          7.109678
 321         V                 3.781792          7.150620
 322         V                 3.781865          7.150650
 323         V                 3.900047          7.326854
 324         V                 3.953482          7.722549
 325         V                 4.011786          7.341380
 326         V                 4.011843          7.341082
 327         V                 4.074665          7.169632
 328         V                 4.074706          7.169411
 329         V                 4.290625          7.687209
 330         V                 4.290721          7.687454
 331         V                 4.382852          7.293499
 332         V                 4.706255          7.809218
 333         V                 4.784010          7.927584
 334         V                 4.784078          7.927373
 335         V                23.341582         60.125777
 336         V                23.808771         60.293027
 337         V                23.808986         60.293136
 338         V                24.085724         60.388705
 339         V                24.085754         60.388727
 340         V                24.112636         60.414980
 341         V                24.129688         60.407689
 342         V                24.173192         60.441242
 343         V                24.173261         60.441286
 344         V                24.191973         60.457531
 345         V                24.211990         60.408650
 346         V                24.229361         60.443188
 347         V                24.229426         60.443284
 Total kinetic energy from orbitals= 5.134683861313D+02
 1\1\GINC-HOGWARTS\SP\RB3LYP\6-311+G(d)\C13H22\ANUJA\04-May-2014\0\\# B
 3LYP/6-311+G* NMR=GIAO POP=FULL SCF(MAXCYCLE=512)\\-------------------
 ------------------------------- # Center 1\\0,1\C,0,-2.44129,1.43619,0
 .\C,0,-2.44129,2.82724,0.\C,0,-1.23578,3.52121,0.\H,0,-1.23936,4.60655
 ,0.\C,0,0.00165,2.8351,0.\C,0,0.00079,1.41509,0.\C,0,-1.2294,0.70585,0
 .\C,0,-1.20468,-0.70884,0.\C,0,-0.00084,-1.40584,0.\C,0,1.20383,-0.710
 45,0.\C,0,1.23031,0.70418,0.\C,0,2.44317,1.43266,0.\C,0,2.44483,2.8236
 8,0.\C,0,1.24013,3.5193,0.\H,0,1.24527,4.60463,0.\H,0,3.38322,3.36489,
 0.\H,0,3.38461,0.89272,0.\H,0,2.14108,-1.25766,0.\H,0,-0.0015,-2.48912
 ,0.\H,0,-2.14274,-1.2547,0.\H,0,-3.37904,3.36953,0.\H,0,-3.38379,0.898
 01,0.\H,0,1.23031,0.70418,1.\H,0,0.00165,2.8351,1.\H,0,0.00079,1.41509
 ,1.\H,0,-1.2294,0.70585,1.\H,0,-2.51719,1.39334,0.9962\H,0,-2.51674,2.
 87087,0.9962\H,0,-1.2365,3.60836,0.9962\H,0,2.519,1.38971,0.9962\H,0,2
 .52034,2.8672,0.9962\H,0,1.24096,3.60645,0.9962\H,0,-1.2798,-0.75304,0
 .9962\H,0,-0.00089,-1.49299,0.99619\H,0,1.27889,-0.75474,0.9962\Bq,0,0
 .00165,2.8351,-1.7\Bq,0,0.00159,2.7351,-1.7\Bq,0,0.00153,2.6351,-1.7\B
 q,0,0.00147,2.5351,-1.7\Bq,0,0.00141,2.4351,-1.7\Bq,0,0.00135,2.3351,-
 1.7\Bq,0,0.00129,2.2351,-1.7\Bq,0,0.00123,2.1351,-1.7\Bq,0,0.00117,2.0
 351,-1.7\Bq,0,0.0011,1.9351,-1.7\Bq,0,0.00104,1.8351,-1.7\Bq,0,0.00098
 ,1.7351,-1.7\Bq,0,0.00092,1.6351,-1.7\Bq,0,0.00086,1.5351,-1.7\Bq,0,0.
 00079,1.41509,-1.7\Bq,0,0.00073,1.31509,-1.7\Bq,0,0.00068,1.21509,-1.7
 \Bq,0,0.00062,1.11509,-1.7\Bq,0,0.00057,1.01509,-1.7\Bq,0,0.00051,0.91
 509,-1.7\Bq,0,0.00045,0.81509,-1.7\Bq,0,0.0004,0.71509,-1.7\Bq,0,0.000
 34,0.61509,-1.7\Bq,0,0.00029,0.51509,-1.7\Bq,0,0.00023,0.41509,-1.7\Bq
 ,0,0.00018,0.31509,-1.7\Bq,0,0.00012,0.21509,-1.7\Bq,0,0.00006,0.11509
 ,-1.7\Bq,0,0.,0.,-1.7\Bq,0,-0.00006,-0.1,-1.7\Bq,0,-0.00012,-0.2,-1.7\
 Bq,0,-0.00018,-0.3,-1.7\Bq,0,-0.00024,-0.4,-1.7\Bq,0,-0.0003,-0.5,-1.7
 \Bq,0,-0.00036,-0.6,-1.7\Bq,0,-0.00042,-0.7,-1.7\Bq,0,-0.00048,-0.8,-1
 .7\Bq,0,-0.00054,-0.9,-1.7\Bq,0,-0.0006,-1.,-1.7\Bq,0,-0.00066,-1.1,-1
 .7\Bq,0,-0.00072,-1.2,-1.7\Bq,0,-0.00078,-1.3,-1.7\\Version=EM64L-G09R
 evD.01\HF=-507.5190807\RMSD=5.030e-09\Dipole=-0.0000904,-0.0001049,2.1
 294335\Quadrupole=-1.3065071,-1.3064238,2.6129309,-0.0010692,0.0035482
 ,5.6942776\PG=C01 [X(C13H22)]\\@


 IF AT FIRST YOU DON'T SUCCEED, TRY LOOKING IN 
 THE WASTEBASKET FOR THE DIRECTIONS.
 Job cpu time:       0 days  0 hours 42 minutes 59.2 seconds.
 File lengths (MBytes):  RWF=     72 Int=      0 D2E=      0 Chk=      8 Scr=      1
 Normal termination of Gaussian 09 at Sun May  4 19:38:28 2014.
