 Entering Gaussian System, Link 0=/usr/local/g09/g09
 Input=/home/anuja/input/phenalene-x-center1.in
 Output=/home/anuja/output/phenalene-x-center1.log
 Initial command:
 /usr/local/g09-D.01/g09/l1.exe /gtmp/Gau-4931.inp -scrdir=/gtmp/
 Entering Link 1 = /usr/local/g09-D.01/g09/l1.exe PID=      4933.
  
 Copyright (c) 1988,1990,1992,1993,1995,1998,2003,2009,2013,
            Gaussian, Inc.  All Rights Reserved.
  
 This is part of the Gaussian(R) 09 program.  It is based on
 the Gaussian(R) 03 system (copyright 2003, Gaussian, Inc.),
 the Gaussian(R) 98 system (copyright 1998, Gaussian, Inc.),
 the Gaussian(R) 94 system (copyright 1995, Gaussian, Inc.),
 the Gaussian 92(TM) system (copyright 1992, Gaussian, Inc.),
 the Gaussian 90(TM) system (copyright 1990, Gaussian, Inc.),
 the Gaussian 88(TM) system (copyright 1988, Gaussian, Inc.),
 the Gaussian 86(TM) system (copyright 1986, Carnegie Mellon
 University), and the Gaussian 82(TM) system (copyright 1983,
 Carnegie Mellon University). Gaussian is a federally registered
 trademark of Gaussian, Inc.
  
 This software contains proprietary and confidential information,
 including trade secrets, belonging to Gaussian, Inc.
  
 This software is provided under written license and may be
 used, copied, transmitted, or stored only in accord with that
 written license.
  
 The following legend is applicable only to US Government
 contracts under FAR:
  
                    RESTRICTED RIGHTS LEGEND
  
 Use, reproduction and disclosure by the US Government is
 subject to restrictions as set forth in subparagraphs (a)
 and (c) of the Commercial Computer Software - Restricted
 Rights clause in FAR 52.227-19.
  
 Gaussian, Inc.
 340 Quinnipiac St., Bldg. 40, Wallingford CT 06492
  
  
 ---------------------------------------------------------------
 Warning -- This program may not be used in any manner that
 competes with the business of Gaussian, Inc. or will provide
 assistance to any competitor of Gaussian, Inc.  The licensee
 of this program is prohibited from giving any competitor of
 Gaussian, Inc. access to this program.  By using this program,
 the user acknowledges that Gaussian, Inc. is engaged in the
 business of creating and licensing software in the field of
 computational chemistry and represents and warrants to the
 licensee that it is not a competitor of Gaussian, Inc. and that
 it will not use this program in any manner prohibited above.
 ---------------------------------------------------------------
  

 Cite this work as:
 Gaussian 09, Revision D.01,
 M. J. Frisch, G. W. Trucks, H. B. Schlegel, G. E. Scuseria, 
 M. A. Robb, J. R. Cheeseman, G. Scalmani, V. Barone, B. Mennucci, 
 G. A. Petersson, H. Nakatsuji, M. Caricato, X. Li, H. P. Hratchian, 
 A. F. Izmaylov, J. Bloino, G. Zheng, J. L. Sonnenberg, M. Hada, 
 M. Ehara, K. Toyota, R. Fukuda, J. Hasegawa, M. Ishida, T. Nakajima, 
 Y. Honda, O. Kitao, H. Nakai, T. Vreven, J. A. Montgomery, Jr., 
 J. E. Peralta, F. Ogliaro, M. Bearpark, J. J. Heyd, E. Brothers, 
 K. N. Kudin, V. N. Staroverov, T. Keith, R. Kobayashi, J. Normand, 
 K. Raghavachari, A. Rendell, J. C. Burant, S. S. Iyengar, J. Tomasi, 
 M. Cossi, N. Rega, J. M. Millam, M. Klene, J. E. Knox, J. B. Cross, 
 V. Bakken, C. Adamo, J. Jaramillo, R. Gomperts, R. E. Stratmann, 
 O. Yazyev, A. J. Austin, R. Cammi, C. Pomelli, J. W. Ochterski, 
 R. L. Martin, K. Morokuma, V. G. Zakrzewski, G. A. Voth, 
 P. Salvador, J. J. Dannenberg, S. Dapprich, A. D. Daniels, 
 O. Farkas, J. B. Foresman, J. V. Ortiz, J. Cioslowski, 
 and D. J. Fox, Gaussian, Inc., Wallingford CT, 2013.
 
 ******************************************
 Gaussian 09:  EM64L-G09RevD.01 24-Apr-2013
                 4-May-2014 
 ******************************************
 %NPROC=6
 Will use up to    6 processors via shared memory.
 %MEM=6024MB
 ----------------------------------------------------
 # B3LYP/6-311+G* NMR=GIAO POP=FULL SCF(MAXCYCLE=512)
 ----------------------------------------------------
 1/38=1/1;
 2/12=2,17=6,18=5,40=1/2;
 3/5=4,6=6,7=11,11=2,16=1,25=1,30=1,74=-5/1,2,8,3;
 4//1;
 5/5=2,7=512,38=5/2;
 8/6=1,10=90,11=11/1;
 10/13=100,45=16/2;
 6/7=3,28=1/1;
 99/9=1/99;
 --------------------------------------------
 Compund 12 from Renana's XY Paper # Center 1
 --------------------------------------------
 Symbolic Z-matrix:
 Charge =  1 Multiplicity = 1
 6                     2.22113  -1.0155    0. 
 6                     2.81048   0.24453   0. 
 6                     2.01252   1.38387   0. 
 1                     2.47559   2.36548   0. 
 6                     0.60095   1.28665   0. 
 6                     0.00011   0.00002   0. 
 6                     0.81396  -1.16362   0. 
 6                     0.1922   -2.43459   0. 
 6                    -1.19355  -2.55591   0. 
 6                    -0.231     2.43112   0. 
 1                     0.22416   3.41641   0. 
 6                    -1.4148   -0.12302   0. 
 6                    -1.61695   2.31141   0. 
 1                    -2.23768   3.19922   0. 
 6                    -2.20479   1.0507    0. 
 1                    -3.28631   0.96048   0. 
 6                    -1.99015  -1.41563   0. 
 1                    -3.07097  -1.51422   0. 
 1                     3.88966   0.33845   0. 
 1                     2.84685  -1.9023    0. 
 1                     0.81065  -3.32647   0. 
 1                    -1.65191  -3.53745   0. 
 bq                    2.22113  -1.0155    1.7 
 bq                    2.13019  -0.97392   1.7 
 bq                    2.03924  -0.93234   1.7 
 bq                    1.9483   -0.89076   1.7 
 bq                    1.85735  -0.84918   1.7 
 bq                    1.76641  -0.8076    1.7 
 bq                    1.67546  -0.76602   1.7 
 bq                    1.58452  -0.72444   1.7 
 bq                    1.49357  -0.68286   1.7 
 bq                    1.40263  -0.64128   1.7 
 bq                    1.31168  -0.5997    1.7 
 bq                    1.22073  -0.55812   1.7 
 bq                    1.12979  -0.51654   1.7 
 bq                    1.03884  -0.47496   1.7 
 bq                    0.9479   -0.43338   1.7 
 bq                    0.85695  -0.3918    1.7 
 bq                    0.76601  -0.35022   1.7 
 bq                    0.67506  -0.30864   1.7 
 bq                    0.58412  -0.26706   1.7 
 bq                    0.49317  -0.22548   1.7 
 bq                    0.40223  -0.1839    1.7 
 bq                    0.31128  -0.14232   1.7 
 bq                    0.22033  -0.10074   1.7 
 bq                    0.12939  -0.05916   1.7 
 bq                    0.        0.        1.7 
 bq                   -0.09027   0.04302   1.7 
 bq                   -0.18055   0.08604   1.7 
 bq                   -0.27082   0.12906   1.7 
 bq                   -0.36109   0.17208   1.7 
 bq                   -0.45137   0.2151    1.7 
 bq                   -0.54164   0.25812   1.7 
 bq                   -0.63191   0.30114   1.7 
 bq                   -0.72219   0.34416   1.7 
 bq                   -0.81246   0.38718   1.7 
 bq                   -0.90273   0.4302    1.7 
 bq                   -0.99301   0.47322   1.7 
 bq                   -1.08328   0.51624   1.7 
 bq                   -1.17355   0.55926   1.7 
 bq                   -1.26383   0.60228   1.7 
 bq                   -1.3541    0.6453    1.7 
 bq                   -1.44437   0.68832   1.7 
 bq                   -1.53465   0.73134   1.7 
 bq                   -1.62492   0.77436   1.7 
 bq                   -1.71519   0.81738   1.7 
 bq                   -1.80547   0.8604    1.7 
 bq                   -1.89574   0.90342   1.7 
 bq                   -1.98601   0.94645   1.7 
 bq                   -2.07628   0.98947   1.7 
 
 Symmetry turned off:
 Cannot cope with ghost atoms or with translation vectors.
 Stoichiometry    C13H9(1+)
 Framework group  C1[X(C13H9)]
 NUMDOF-- NAT=    22 NAtoms=    70
 Deg. of freedom     0
 Full point group                 C1      NOp   1
                          Input orientation:                          
 ---------------------------------------------------------------------
 Center     Atomic      Atomic             Coordinates (Angstroms)
 Number     Number       Type             X           Y           Z
 ---------------------------------------------------------------------
      1          6           0        2.221130   -1.015500    0.000000
      2          6           0        2.810480    0.244530    0.000000
      3          6           0        2.012520    1.383870    0.000000
      4          1           0        2.475590    2.365480    0.000000
      5          6           0        0.600950    1.286650    0.000000
      6          6           0        0.000110    0.000020    0.000000
      7          6           0        0.813960   -1.163620    0.000000
      8          6           0        0.192200   -2.434590    0.000000
      9          6           0       -1.193550   -2.555910    0.000000
     10          6           0       -0.231000    2.431120    0.000000
     11          1           0        0.224160    3.416410    0.000000
     12          6           0       -1.414800   -0.123020    0.000000
     13          6           0       -1.616950    2.311410    0.000000
     14          1           0       -2.237680    3.199220    0.000000
     15          6           0       -2.204790    1.050700    0.000000
     16          1           0       -3.286310    0.960480    0.000000
     17          6           0       -1.990150   -1.415630    0.000000
     18          1           0       -3.070970   -1.514220    0.000000
     19          1           0        3.889660    0.338450    0.000000
     20          1           0        2.846850   -1.902300    0.000000
     21          1           0        0.810650   -3.326470    0.000000
     22          1           0       -1.651910   -3.537450    0.000000
     23          0           0        2.221130   -1.015500    1.700000
     24          0           0        2.130190   -0.973920    1.700000
     25          0           0        2.039240   -0.932340    1.700000
     26          0           0        1.948300   -0.890760    1.700000
     27          0           0        1.857350   -0.849180    1.700000
     28          0           0        1.766410   -0.807600    1.700000
     29          0           0        1.675460   -0.766020    1.700000
     30          0           0        1.584520   -0.724440    1.700000
     31          0           0        1.493570   -0.682860    1.700000
     32          0           0        1.402630   -0.641280    1.700000
     33          0           0        1.311680   -0.599700    1.700000
     34          0           0        1.220730   -0.558120    1.700000
     35          0           0        1.129790   -0.516540    1.700000
     36          0           0        1.038840   -0.474960    1.700000
     37          0           0        0.947900   -0.433380    1.700000
     38          0           0        0.856950   -0.391800    1.700000
     39          0           0        0.766010   -0.350220    1.700000
     40          0           0        0.675060   -0.308640    1.700000
     41          0           0        0.584120   -0.267060    1.700000
     42          0           0        0.493170   -0.225480    1.700000
     43          0           0        0.402230   -0.183900    1.700000
     44          0           0        0.311280   -0.142320    1.700000
     45          0           0        0.220330   -0.100740    1.700000
     46          0           0        0.129390   -0.059160    1.700000
     47          0           0        0.000000    0.000000    1.700000
     48          0           0       -0.090270    0.043020    1.700000
     49          0           0       -0.180550    0.086040    1.700000
     50          0           0       -0.270820    0.129060    1.700000
     51          0           0       -0.361090    0.172080    1.700000
     52          0           0       -0.451370    0.215100    1.700000
     53          0           0       -0.541640    0.258120    1.700000
     54          0           0       -0.631910    0.301140    1.700000
     55          0           0       -0.722190    0.344160    1.700000
     56          0           0       -0.812460    0.387180    1.700000
     57          0           0       -0.902730    0.430200    1.700000
     58          0           0       -0.993010    0.473220    1.700000
     59          0           0       -1.083280    0.516240    1.700000
     60          0           0       -1.173550    0.559260    1.700000
     61          0           0       -1.263830    0.602280    1.700000
     62          0           0       -1.354100    0.645300    1.700000
     63          0           0       -1.444370    0.688320    1.700000
     64          0           0       -1.534650    0.731340    1.700000
     65          0           0       -1.624920    0.774360    1.700000
     66          0           0       -1.715190    0.817380    1.700000
     67          0           0       -1.805470    0.860400    1.700000
     68          0           0       -1.895740    0.903420    1.700000
     69          0           0       -1.986010    0.946450    1.700000
     70          0           0       -2.076280    0.989470    1.700000
 ---------------------------------------------------------------------
 Rotational constants (GHZ):      1.1163682      1.1161138      0.5581205
 Standard basis: 6-311+G(d) (5D, 7F)
 Warning:  center  23 has no basis functions!
 Warning:  center  24 has no basis functions!
 Warning:  center  25 has no basis functions!
 Warning:  center  26 has no basis functions!
 Warning:  center  27 has no basis functions!
 Warning:  center  28 has no basis functions!
 Warning:  center  29 has no basis functions!
 Warning:  center  30 has no basis functions!
 Warning:  center  31 has no basis functions!
 Warning:  center  32 has no basis functions!
 Warning:  center  33 has no basis functions!
 Warning:  center  34 has no basis functions!
 Warning:  center  35 has no basis functions!
 Warning:  center  36 has no basis functions!
 Warning:  center  37 has no basis functions!
 Warning:  center  38 has no basis functions!
 Warning:  center  39 has no basis functions!
 Warning:  center  40 has no basis functions!
 Warning:  center  41 has no basis functions!
 Warning:  center  42 has no basis functions!
 Warning:  center  43 has no basis functions!
 Warning:  center  44 has no basis functions!
 Warning:  center  45 has no basis functions!
 Warning:  center  46 has no basis functions!
 Warning:  center  47 has no basis functions!
 Warning:  center  48 has no basis functions!
 Warning:  center  49 has no basis functions!
 Warning:  center  50 has no basis functions!
 Warning:  center  51 has no basis functions!
 Warning:  center  52 has no basis functions!
 Warning:  center  53 has no basis functions!
 Warning:  center  54 has no basis functions!
 Warning:  center  55 has no basis functions!
 Warning:  center  56 has no basis functions!
 Warning:  center  57 has no basis functions!
 Warning:  center  58 has no basis functions!
 Warning:  center  59 has no basis functions!
 Warning:  center  60 has no basis functions!
 Warning:  center  61 has no basis functions!
 Warning:  center  62 has no basis functions!
 Warning:  center  63 has no basis functions!
 Warning:  center  64 has no basis functions!
 Warning:  center  65 has no basis functions!
 Warning:  center  66 has no basis functions!
 Warning:  center  67 has no basis functions!
 Warning:  center  68 has no basis functions!
 Warning:  center  69 has no basis functions!
 Warning:  center  70 has no basis functions!
   313 basis functions,   513 primitive gaussians,   326 cartesian basis functions
    43 alpha electrons       43 beta electrons
       nuclear repulsion energy       698.4591280098 Hartrees.
 NAtoms=   70 NActive=   70 NUniq=   70 SFac= 1.00D+00 NAtFMM=   60 NAOKFM=T Big=T
 Integral buffers will be    131072 words long.
 Raffenetti 2 integral format.
 Two-electron integral symmetry is turned off.
 One-electron integrals computed using PRISM.
 NBasis=   313 RedAO= T EigKep=  1.32D-06  NBF=   313
 NBsUse=   308 1.00D-06 EigRej=  8.88D-07 NBFU=   308
 ExpMin= 4.38D-02 ExpMax= 4.56D+03 ExpMxC= 6.82D+02 IAcc=2 IRadAn=         4 AccDes= 0.00D+00
 Harris functional with IExCor=  402 and IRadAn=       4 diagonalized for initial guess.
 HarFok:  IExCor=  402 AccDes= 0.00D+00 IRadAn=         4 IDoV= 1 UseB2=F ITyADJ=14
 ICtDFT=  3500011 ScaDFX=  1.000000  1.000000  1.000000  1.000000
 FoFCou: FMM=F IPFlag=           0 FMFlag=      100000 FMFlg1=        2001
         NFxFlg=           0 DoJE=T BraDBF=F KetDBF=T FulRan=T
         wScrn=  0.000000 ICntrl=     500 IOpCl=  0 I1Cent=   200000004 NGrid=           0
         NMat0=    1 NMatS0=      1 NMatT0=    0 NMatD0=    1 NMtDS0=    0 NMtDT0=    0
 Symmetry not used in FoFCou.
 Requested convergence on RMS density matrix=1.00D-08 within 512 cycles.
 Requested convergence on MAX density matrix=1.00D-06.
 Requested convergence on             energy=1.00D-06.
 No special actions if energy rises.
 SCF Done:  E(RB3LYP) =  -500.682079530     A.U. after   12 cycles
            NFock= 12  Conv=0.82D-08     -V/T= 2.0044
 DoSCS=F DFT=T ScalE2(SS,OS)=  1.000000  1.000000
 Range of M.O.s used for correlation:     1   308
 NBasis=   313 NAE=    43 NBE=    43 NFC=     0 NFV=     0
 NROrb=    308 NOA=    43 NOB=    43 NVA=   265 NVB=   265

 **** Warning!!: The largest alpha MO coefficient is  0.40847328D+03

          Differentiating once with respect to magnetic field using GIAOs.
          Electric field/nuclear overlap derivatives assumed to be zero.
 FoFCou: FMM=F IPFlag=           0 FMFlag=      100000 FMFlg1=        2001
         NFxFlg=           0 DoJE=F BraDBF=F KetDBF=T FulRan=T
         wScrn=  0.000000 ICntrl=    6100 IOpCl=  0 I1Cent=           7 NGrid=          70
         NMat0=    1 NMatS0=      1 NMatT0=    0 NMatD0=    1 NMtDS0=    0 NMtDT0=    0
 Symmetry not used in FoFCou.
 FoFJK:  IHMeth= 1 ICntrl=    6127 DoSepK=F KAlg= 0 I1Cent=   0 FoldK=F
 IRaf=         1 NMat=   1 IRICut=       1 DoRegI=T DoRafI=F ISym2E= 0.
          There are     3 degrees of freedom in the 1st order CPHF.  IDoFFX=0 NUNeed=     3.
      3 vectors produced by pass  0 Test12= 3.80D-13 3.33D-08 XBig12= 8.17D+02 1.62D+01.
 AX will form     3 AO Fock derivatives at one time.
      3 vectors produced by pass  1 Test12= 3.80D-13 3.33D-08 XBig12= 1.53D+00 9.27D-01.
      3 vectors produced by pass  2 Test12= 3.80D-13 3.33D-08 XBig12= 1.74D-02 8.30D-02.
      3 vectors produced by pass  3 Test12= 3.80D-13 3.33D-08 XBig12= 2.50D-05 1.29D-03.
      3 vectors produced by pass  4 Test12= 3.80D-13 3.33D-08 XBig12= 4.21D-08 7.76D-05.
      3 vectors produced by pass  5 Test12= 3.80D-13 3.33D-08 XBig12= 1.24D-10 4.72D-06.
      3 vectors produced by pass  6 Test12= 3.80D-13 3.33D-08 XBig12= 2.72D-13 1.58D-07.
 InvSVY:  IOpt=1 It=  1 EMax= 3.55D-15
 Solved reduced A of dimension    21 with     3 vectors.
 Calculating GIAO nuclear magnetic shielding tensors.
 SCF GIAO Magnetic shielding tensor (ppm):
      1  C    Isotropic =    23.8214   Anisotropy =   202.4116
   XX=   -42.3279   YX=    34.5817   ZX=     0.0000
   XY=    40.9684   YY=   -44.9703   ZY=     0.0000
   XZ=     0.0000   YZ=     0.0000   ZZ=   158.7625
   Eigenvalues:   -81.4473    -5.8509   158.7625
      2  C    Isotropic =    46.5213   Anisotropy =   188.8927
   XX=   -59.3154   YX=    -7.5077   ZX=     0.0000
   XY=    -7.5045   YY=    26.4296   ZY=     0.0000
   XZ=     0.0000   YZ=     0.0000   ZZ=   172.4498
   Eigenvalues:   -59.9675    27.0817   172.4498
      3  C    Isotropic =    23.8998   Anisotropy =   202.9186
   XX=   -29.6178   YX=   -32.1179   ZX=     0.0000
   XY=   -38.3080   YY=   -57.8616   ZY=     0.0000
   XZ=     0.0000   YZ=     0.0000   ZZ=   159.1789
   Eigenvalues:   -81.6789    -5.8005   159.1789
      4  H    Isotropic =    22.9388   Anisotropy =     7.4286
   XX=    26.9211   YX=    -2.1288   ZX=     0.0000
   XY=    -2.1493   YY=    23.1745   ZY=     0.0000
   XZ=     0.0000   YZ=     0.0000   ZZ=    18.7207
   Eigenvalues:    18.7207    22.2044    27.8912
      5  C    Isotropic =    46.5739   Anisotropy =   209.0545
   XX=   -22.5179   YX=     0.1921   ZX=     0.0000
   XY=    -0.3444   YY=   -23.7039   ZY=     0.0000
   XZ=     0.0000   YZ=     0.0000   ZZ=   185.9436
   Eigenvalues:   -23.7088   -22.5131   185.9436
      6  C    Isotropic =    54.6533   Anisotropy =   210.5555
   XX=   -15.5717   YX=     0.0615   ZX=     0.0000
   XY=     0.0299   YY=   -15.4920   ZY=     0.0000
   XZ=     0.0000   YZ=     0.0000   ZZ=   195.0236
   Eigenvalues:   -15.5925   -15.4712   195.0236
      7  C    Isotropic =    47.9216   Anisotropy =   212.3212
   XX=   -22.4641   YX=    -0.2102   ZX=     0.0000
   XY=     0.2885   YY=   -23.2402   ZY=     0.0000
   XZ=     0.0000   YZ=     0.0000   ZZ=   189.4690
   Eigenvalues:   -23.2422   -22.4622   189.4690
      8  C    Isotropic =    24.0899   Anisotropy =   202.6807
   XX=   -20.0989   YX=    32.8393   ZX=     0.0000
   XY=    26.6497   YY=   -66.8417   ZY=     0.0000
   XZ=     0.0000   YZ=     0.0000   ZZ=   159.2104
   Eigenvalues:   -81.2983    -5.6424   159.2104
      9  C    Isotropic =    46.3359   Anisotropy =   188.0032
   XX=    11.7113   YX=   -33.5030   ZX=     0.0000
   XY=   -33.5240   YY=   -44.3749   ZY=     0.0000
   XZ=     0.0000   YZ=     0.0000   ZZ=   171.6713
   Eigenvalues:   -60.0305    27.3668   171.6713
     10  C    Isotropic =    23.9526   Anisotropy =   202.7687
   XX=   -11.4011   YX=   -23.0352   ZX=     0.0000
   XY=   -17.1117   YY=   -75.8729   ZY=     0.0000
   XZ=     0.0000   YZ=     0.0000   ZZ=   159.1317
   Eigenvalues:   -81.6119    -5.6620   159.1317
     11  H    Isotropic =    22.9127   Anisotropy =     7.3949
   XX=    26.7866   YX=    -2.1932   ZX=     0.0000
   XY=    -2.2135   YY=    23.2455   ZY=     0.0000
   XZ=     0.0000   YZ=     0.0000   ZZ=    18.7060
   Eigenvalues:    18.7060    22.1895    27.8426
     12  C    Isotropic =    48.2701   Anisotropy =   210.1774
   XX=   -20.5779   YX=     0.1827   ZX=     0.0000
   XY=     0.0105   YY=   -23.0002   ZY=     0.0000
   XZ=     0.0000   YZ=     0.0000   ZZ=   188.3884
   Eigenvalues:   -23.0040   -20.5741   188.3884
     13  C    Isotropic =    46.6138   Anisotropy =   189.2195
   XX=    -1.5638   YX=    41.1923   ZX=     0.0000
   XY=    41.0803   YY=   -31.3549   ZY=     0.0000
   XZ=     0.0000   YZ=     0.0000   ZZ=   172.7601
   Eigenvalues:   -60.2095    27.2908   172.7601
     14  H    Isotropic =    23.6485   Anisotropy =     5.6402
   XX=    26.3516   YX=     1.4561   ZX=     0.0000
   XY=     1.5560   YY=    25.2627   ZY=     0.0000
   XZ=     0.0000   YZ=     0.0000   ZZ=    19.3312
   Eigenvalues:    19.3312    24.2057    27.4086
     15  C    Isotropic =    24.2815   Anisotropy =   202.0992
   XX=   -79.9669   YX=     8.7882   ZX=     0.0000
   XY=     1.7313   YY=    -6.2029   ZY=     0.0000
   XZ=     0.0000   YZ=     0.0000   ZZ=   159.0144
   Eigenvalues:   -80.3400    -5.8297   159.0144
     16  H    Isotropic =    22.9786   Anisotropy =     7.4821
   XX=    22.3507   YX=    -0.5614   ZX=     0.0000
   XY=    -0.6242   YY=    27.9041   ZY=     0.0000
   XZ=     0.0000   YZ=     0.0000   ZZ=    18.6810
   Eigenvalues:    18.6810    22.2881    27.9666
     17  C    Isotropic =    24.2757   Anisotropy =   202.4687
   XX=   -76.2114   YX=   -21.0556   ZX=     0.0000
   XY=   -14.2321   YY=   -10.2164   ZY=     0.0000
   XZ=     0.0000   YZ=     0.0000   ZZ=   159.2548
   Eigenvalues:   -80.6323    -5.7954   159.2548
     18  H    Isotropic =    23.0376   Anisotropy =     7.3617
   XX=    22.3046   YX=    -0.4294   ZX=     0.0000
   XY=    -0.3806   YY=    27.9163   ZY=     0.0000
   XZ=     0.0000   YZ=     0.0000   ZZ=    18.8918
   Eigenvalues:    18.8918    22.2755    27.9454
     19  H    Isotropic =    23.6437   Anisotropy =     5.6720
   XX=    24.2212   YX=    -0.2709   ZX=     0.0000
   XY=    -0.2827   YY=    27.4011   ZY=     0.0000
   XZ=     0.0000   YZ=     0.0000   ZZ=    19.3087
   Eigenvalues:    19.3087    24.1973    27.4250
     20  H    Isotropic =    22.9715   Anisotropy =     7.4093
   XX=    26.0974   YX=     2.6392   ZX=     0.0000
   XY=     2.6765   YY=    24.0160   ZY=     0.0000
   XZ=     0.0000   YZ=     0.0000   ZZ=    18.8012
   Eigenvalues:    18.8012    22.2024    27.9111
     21  H    Isotropic =    23.0104   Anisotropy =     7.2830
   XX=    25.9363   YX=     2.6906   ZX=     0.0000
   XY=     2.6886   YY=    24.1166   ZY=     0.0000
   XZ=     0.0000   YZ=     0.0000   ZZ=    18.9785
   Eigenvalues:    18.9785    22.1871    27.8658
     22  H    Isotropic =    23.6344   Anisotropy =     5.6593
   XX=    26.8326   YX=    -1.1981   ZX=     0.0000
   XY=    -1.2556   YY=    24.7884   ZY=     0.0000
   XZ=     0.0000   YZ=     0.0000   ZZ=    19.2823
   Eigenvalues:    19.2823    24.2137    27.4073
     23  Bq   Isotropic =     4.0121   Anisotropy =    17.0325
   XX=     0.0812   YX=     0.2001   ZX=     1.1001
   XY=     0.2632   YY=    -0.2269   ZY=    -1.1307
   XZ=    10.1923   YZ=    -7.3214   ZZ=    12.1819
   Eigenvalues:    -3.4470     0.1161    15.3671
     24  Bq   Isotropic =     4.3323   Anisotropy =    17.5861
   XX=     0.1124   YX=     0.2909   ZX=     1.0018
   XY=     0.3335   YY=    -0.3120   ZY=    -1.0017
   XZ=     9.9930   YZ=    -7.1580   ZZ=    13.1966
   Eigenvalues:    -3.2180     0.1586    16.0564
     25  Bq   Isotropic =     4.6251   Anisotropy =    18.0950
   XX=     0.1357   YX=     0.3648   ZX=     0.9112
   XY=     0.3899   YY=    -0.4035   ZY=    -0.8491
   XZ=     9.7567   YZ=    -6.9097   ZZ=    14.1430
   Eigenvalues:    -2.9928     0.1795    16.6884
     26  Bq   Isotropic =     4.8882   Anisotropy =    18.5587
   XX=     0.1496   YX=     0.4168   ZX=     0.8315
   XY=     0.4278   YY=    -0.4959   ZY=    -0.6777
   XZ=     9.4944   YZ=    -6.5852   ZZ=    15.0110
   Eigenvalues:    -2.7712     0.1752    17.2607
     27  Bq   Isotropic =     5.1220   Anisotropy =    18.9799
   XX=     0.1537   YX=     0.4433   ZX=     0.7660
   XY=     0.4435   YY=    -0.5841   ZY=    -0.4948
   XZ=     9.2159   YZ=    -6.1974   ZZ=    15.7964
   Eigenvalues:    -2.5526     0.1433    17.7752
     28  Bq   Isotropic =     5.3281   Anisotropy =    19.3641
   XX=     0.1475   YX=     0.4426   ZX=     0.7182
   XY=     0.4349   YY=    -0.6634   ZY=    -0.3089
   XZ=     8.9297   YZ=    -5.7616   ZZ=    16.5003
   Eigenvalues:    -2.3366     0.0835    18.2375
     29  Bq   Isotropic =     5.5098   Anisotropy =    19.7185
   XX=     0.1310   YX=     0.4151   ZX=     0.6912
   XY=     0.4017   YY=    -0.7303   ZY=    -0.1296
   XZ=     8.6413   YZ=    -5.2948   ZZ=    17.1287
   Eigenvalues:    -2.1235    -0.0026    18.6555
     30  Bq   Isotropic =     5.6708   Anisotropy =    20.0514
   XX=     0.1036   YX=     0.3633   ZX=     0.6870
   XY=     0.3462   YY=    -0.7823   ZY=     0.0340
   XZ=     8.3535   YZ=    -4.8137   ZZ=    17.6910
   Eigenvalues:    -1.9144    -0.1116    19.0384
     31  Bq   Isotropic =     5.8152   Anisotropy =    20.3705
   XX=     0.0647   YX=     0.2915   ZX=     0.7059
   XY=     0.2723   YY=    -0.8183   ZY=     0.1739
   XZ=     8.0665   YZ=    -4.3341   ZZ=    18.1991
   Eigenvalues:    -1.7117    -0.2382    19.3955
     32  Bq   Isotropic =     5.9468   Anisotropy =    20.6827
   XX=     0.0133   YX=     0.2056   ZX=     0.7458
   XY=     0.1854   YY=    -0.8382   ZY=     0.2843
   XZ=     7.7777   YZ=    -3.8697   ZZ=    18.6655
   Eigenvalues:    -1.5187    -0.3761    19.7353
     33  Bq   Isotropic =     6.0694   Anisotropy =    20.9933
   XX=    -0.0513   YX=     0.1118   ZX=     0.8023
   XY=     0.0920   YY=    -0.8429   ZY=     0.3618
   XZ=     7.4825   YZ=    -3.4317   ZZ=    19.1022
   Eigenvalues:    -1.3388    -0.5180    20.0649
     34  Bq   Isotropic =     6.1858   Anisotropy =    21.3053
   XX=    -0.1291   YX=     0.0169   ZX=     0.8687
   XY=    -0.0015   YY=    -0.8337   ZY=     0.4056
   XZ=     7.1751   YZ=    -3.0286   ZZ=    19.5201
   Eigenvalues:    -1.1763    -0.6557    20.3893
     35  Bq   Isotropic =     6.2986   Anisotropy =    21.6198
   XX=    -0.2192   YX=    -0.0730   ZX=     0.9365
   XY=    -0.0893   YY=    -0.8126   ZY=     0.4173
   XZ=     6.8487   YZ=    -2.6659   ZZ=    19.9275
   Eigenvalues:    -1.0395    -0.7765    20.7118
     36  Bq   Isotropic =     6.4098   Anisotropy =    21.9359
   XX=    -0.3189   YX=    -0.1529   ZX=     0.9962
   XY=    -0.1665   YY=    -0.7822   ZY=     0.4003
   XZ=     6.4965   YZ=    -2.3464   ZZ=    20.3305
   Eigenvalues:    -0.9784    -0.8259    21.0338
     37  Bq   Isotropic =     6.5209   Anisotropy =    22.2512
   XX=    -0.4243   YX=    -0.2187   ZX=     1.0385
   XY=    -0.2294   YY=    -0.7452   ZY=     0.3593
   XZ=     6.1122   YZ=    -2.0701   ZZ=    20.7321
   Eigenvalues:    -1.0383    -0.7541    21.3550
     38  Bq   Isotropic =     6.6325   Anisotropy =    22.5622
   XX=    -0.5298   YX=    -0.2679   ZX=     1.0555
   XY=    -0.2758   YY=    -0.7050   ZY=     0.3001
   XZ=     5.6905   YZ=    -1.8342   ZZ=    21.1324
   Eigenvalues:    -1.1060    -0.6704    21.6740
     39  Bq   Isotropic =     6.7449   Anisotropy =    22.8642
   XX=    -0.6290   YX=    -0.2992   ZX=     1.0414
   XY=    -0.3045   YY=    -0.6652   ZY=     0.2288
   XZ=     5.2276   YZ=    -1.6334   ZZ=    21.5288
   Eigenvalues:    -1.1523    -0.6008    21.9877
     40  Bq   Isotropic =     6.8571   Anisotropy =    23.1526
   XX=    -0.7153   YX=    -0.3124   ZX=     0.9933
   XY=    -0.3154   YY=    -0.6298   ZY=     0.1520
   XZ=     4.7216   YZ=    -1.4601   ZZ=    21.9163
   Eigenvalues:    -1.1725    -0.5484    22.2921
     41  Bq   Isotropic =     6.9675   Anisotropy =    23.4219
   XX=    -0.7826   YX=    -0.3079   ZX=     0.9114
   XY=    -0.3093   YY=    -0.6024   ZY=     0.0761
   XZ=     4.1726   YZ=    -1.3045   ZZ=    22.2874
   Eigenvalues:    -1.1652    -0.5144    22.5820
     42  Bq   Isotropic =     7.0733   Anisotropy =    23.6667
   XX=    -0.8263   YX=    -0.2870   ZX=     0.7990
   XY=    -0.2876   YY=    -0.5867   ZY=     0.0074
   XZ=     3.5831   YZ=    -1.1556   ZZ=    22.6330
   Eigenvalues:    -1.1317    -0.4995    22.8511
     43  Bq   Isotropic =     7.1712   Anisotropy =    23.8812
   XX=    -0.8437   YX=    -0.2515   ZX=     0.6616
   XY=    -0.2521   YY=    -0.5854   ZY=    -0.0478
   XZ=     2.9585   YZ=    -1.0014   ZZ=    22.9426
   Eigenvalues:    -1.0745    -0.5040    23.0919
     44  Bq   Isotropic =     7.2569   Anisotropy =    24.0597
   XX=    -0.8347   YX=    -0.2036   ZX=     0.5066
   XY=    -0.2057   YY=    -0.6001   ZY=    -0.0842
   XZ=     2.3059   YZ=    -0.8306   ZZ=    23.2055
   Eigenvalues:    -0.9979    -0.5280    23.2967
     45  Bq   Isotropic =     7.3264   Anisotropy =    24.1968
   XX=    -0.8014   YX=    -0.1463   ZX=     0.3416
   XY=    -0.1515   YY=    -0.6310   ZY=    -0.0970
   XZ=     1.6347   YZ=    -0.6331   ZZ=    23.4116
   Eigenvalues:    -0.9078    -0.5706    23.4576
     46  Bq   Isotropic =     7.3758   Anisotropy =    24.2879
   XX=    -0.7477   YX=    -0.0829   ZX=     0.1745
   XY=    -0.0931   YY=    -0.6770   ZY=    -0.0829
   XZ=     0.9556   YZ=    -0.4015   ZZ=    23.5522
   Eigenvalues:    -0.8120    -0.6283    23.5678
     47  Bq   Isotropic =     7.4063   Anisotropy =    24.3326
   XX=    -0.6468   YX=     0.0097   ZX=    -0.0536
   XY=    -0.0112   YY=    -0.7624   ZY=    -0.0132
   XZ=    -0.0026   YZ=    -0.0068   ZZ=    23.6280
   Eigenvalues:    -0.7624    -0.6468    23.6280
     48  Bq   Isotropic =     7.3980   Anisotropy =    24.3031
   XX=    -0.5678   YX=     0.0718   ZX=    -0.1985
   XY=     0.0404   YY=    -0.8292   ZY=     0.0723
   XZ=    -0.6523   YZ=     0.3256   ZZ=    23.5910
   Eigenvalues:    -0.8440    -0.5621    23.6001
     49  Bq   Isotropic =     7.3658   Anisotropy =    24.2242
   XX=    -0.4875   YX=     0.1254   ZX=    -0.3267
   XY=     0.0811   YY=    -0.8961   ZY=     0.1826
   XZ=    -1.2777   YZ=     0.6883   ZZ=    23.4808
   Eigenvalues:    -0.9365    -0.4815    23.5153
     50  Bq   Isotropic =     7.3117   Anisotropy =    24.0989
   XX=    -0.4103   YX=     0.1670   ZX=    -0.4348
   XY=     0.1069   YY=    -0.9570   ZY=     0.3122
   XZ=    -1.8736   YZ=     1.0713   ZZ=    23.3023
   Eigenvalues:    -1.0279    -0.4148    23.3776
     51  Bq   Isotropic =     7.2389   Anisotropy =    23.9315
   XX=    -0.3401   YX=     0.1939   ZX=    -0.5196
   XY=     0.1153   YY=    -1.0063   ZY=     0.4533
   XZ=    -2.4376   YZ=     1.4622   ZZ=    23.0632
   Eigenvalues:    -1.1110    -0.3654    23.1933
     52  Bq   Isotropic =     7.1515   Anisotropy =    23.7271
   XX=    -0.2795   YX=     0.2050   ZX=    -0.5791
   XY=     0.1046   YY=    -1.0391   ZY=     0.5971
   XZ=    -2.9704   YZ=     1.8476   ZZ=    22.7731
   Eigenvalues:    -1.1798    -0.3353    22.9696
     53  Bq   Isotropic =     7.0534   Anisotropy =    23.4916
   XX=    -0.2308   YX=     0.2006   ZX=    -0.6119
   XY=     0.0754   YY=    -1.0516   ZY=     0.7341
   XZ=    -3.4749   YZ=     2.2138   ZZ=    22.4426
   Eigenvalues:    -1.2289    -0.3253    22.7145
     54  Bq   Isotropic =     6.9483   Anisotropy =    23.2304
   XX=    -0.1961   YX=     0.1826   ZX=    -0.6182
   XY=     0.0295   YY=    -1.0412   ZY=     0.8554
   XZ=    -3.9563   YZ=     2.5485   ZZ=    22.0823
   Eigenvalues:    -1.2546    -0.3358    22.4353
     55  Bq   Isotropic =     6.8392   Anisotropy =    22.9490
   XX=    -0.1770   YX=     0.1538   ZX=    -0.5996
   XY=    -0.0295   YY=    -1.0070   ZY=     0.9533
   XZ=    -4.4211   YZ=     2.8417   ZZ=    21.7018
   Eigenvalues:    -1.2544    -0.3664    22.1386
     56  Bq   Isotropic =     6.7283   Anisotropy =    22.6524
   XX=    -0.1749   YX=     0.1177   ZX=    -0.5599
   XY=    -0.0970   YY=    -0.9493   ZY=     1.0222
   XZ=    -4.8762   YZ=     3.0858   ZZ=    21.3092
   Eigenvalues:    -1.2283    -0.4167    21.8299
     57  Bq   Isotropic =     6.6166   Anisotropy =    22.3454
   XX=    -0.1906   YX=     0.0782   ZX=    -0.5049
   XY=    -0.1680   YY=    -0.8700   ZY=     1.0589
   XZ=    -5.3288   YZ=     3.2765   ZZ=    20.9105
   Eigenvalues:    -1.1792    -0.4845    21.5136
     58  Bq   Isotropic =     6.5046   Anisotropy =    22.0325
   XX=    -0.2240   YX=     0.0385   ZX=    -0.4423
   XY=    -0.2374   YY=    -0.7716   ZY=     1.0628
   XZ=    -5.7856   YZ=     3.4123   ZZ=    20.5092
   Eigenvalues:    -1.1152    -0.5640    21.1929
     59  Bq   Isotropic =     6.3917   Anisotropy =    21.7176
   XX=    -0.2736   YX=     0.0014   ZX=    -0.3813
   XY=    -0.3010   YY=    -0.6579   ZY=     1.0356
   XZ=    -6.2522   YZ=     3.4948   ZZ=    20.1065
   Eigenvalues:    -1.0588    -0.6362    20.8701
     60  Bq   Isotropic =     6.2769   Anisotropy =    21.4038
   XX=    -0.3364   YX=    -0.0317   ZX=    -0.3315
   XY=    -0.3554   YY=    -0.5333   ZY=     0.9811
   XZ=    -6.7332   YZ=     3.5283   ZZ=    19.7003
   Eigenvalues:    -1.0638    -0.6517    20.5461
     61  Bq   Isotropic =     6.1584   Anisotropy =    21.0926
   XX=    -0.4078   YX=    -0.0601   ZX=    -0.3022
   XY=    -0.3982   YY=    -0.4029   ZY=     0.9041
   XZ=    -7.2317   YZ=     3.5193   ZZ=    19.2860
   Eigenvalues:    -1.1628    -0.5821    20.2202
     62  Bq   Isotropic =     6.0342   Anisotropy =    20.7840
   XX=    -0.4817   YX=    -0.0843   ZX=    -0.3012
   XY=    -0.4283   YY=    -0.2720   ZY=     0.8104
   XZ=    -7.7485   YZ=     3.4761   ZZ=    18.8563
   Eigenvalues:    -1.3203    -0.4673    19.8903
     63  Bq   Isotropic =     5.9015   Anisotropy =    20.4759
   XX=    -0.5510   YX=    -0.1055   ZX=    -0.3338
   XY=    -0.4454   YY=    -0.1460   ZY=     0.7060
   XZ=    -8.2825   YZ=     3.4084   ZZ=    18.4014
   Eigenvalues:    -1.5083    -0.3394    19.5521
     64  Bq   Isotropic =     5.7570   Anisotropy =    20.1640
   XX=    -0.6087   YX=    -0.1252   ZX=    -0.4023
   XY=    -0.4500   YY=    -0.0303   ZY=     0.5970
   XZ=    -8.8295   YZ=     3.3264   ZZ=    17.9099
   Eigenvalues:    -1.7147    -0.2140    19.1996
     65  Bq   Isotropic =     5.5971   Anisotropy =    19.8421
   XX=    -0.6484   YX=    -0.1449   ZX=    -0.5052
   XY=    -0.4428   YY=     0.0701   ZY=     0.4890
   XZ=    -9.3820   YZ=     3.2407   ZZ=    17.3695
   Eigenvalues:    -1.9331    -0.1009    18.8251
     66  Bq   Isotropic =     5.4179   Anisotropy =    19.5026
   XX=    -0.6654   YX=    -0.1655   ZX=    -0.6381
   XY=    -0.4253   YY=     0.1509   ZY=     0.3871
   XZ=    -9.9298   YZ=     3.1610   ZZ=    16.7681
   Eigenvalues:    -2.1592    -0.0068    18.4196
     67  Bq   Isotropic =     5.2157   Anisotropy =    19.1373
   XX=    -0.6572   YX=    -0.1873   ZX=    -0.7938
   XY=    -0.3989   YY=     0.2090   ZY=     0.2962
   XZ=   -10.4595   YZ=     3.0960   ZZ=    16.0953
   Eigenvalues:    -2.3903     0.0635    17.9739
     68  Bq   Isotropic =     4.9873   Anisotropy =    18.7382
   XX=    -0.6239   YX=    -0.2098   ZX=    -0.9639
   XY=    -0.3655   YY=     0.2422   ZY=     0.2202
   XZ=   -10.9555   YZ=     3.0523   ZZ=    15.3436
   Eigenvalues:    -2.6245     0.1071    17.4795
     69  Bq   Isotropic =     4.7307   Anisotropy =    18.2987
   XX=    -0.5679   YX=    -0.2318   ZX=    -1.1394
   XY=    -0.3272   YY=     0.2499   ZY=     0.1623
   XZ=   -11.4009   YZ=     3.0341   ZZ=    14.5099
   Eigenvalues:    -2.8610     0.1232    16.9298
     70  Bq   Isotropic =     4.4452   Anisotropy =    17.8143
   XX=    -0.4935   YX=    -0.2517   ZX=    -1.3121
   XY=    -0.2864   YY=     0.2329   ZY=     0.1247
   XZ=   -11.7790   YZ=     3.0428   ZZ=    13.5961
   Eigenvalues:    -3.0988     0.1129    16.3214
 End of Minotr F.D. properties file   721 does not exist.
 End of Minotr F.D. properties file   722 does not exist.
 End of Minotr F.D. properties file   788 does not exist.

 **********************************************************************

            Population analysis using the SCF density.

 **********************************************************************

 Alpha  occ. eigenvalues --  -10.36753 -10.36752 -10.36752 -10.36752 -10.36750
 Alpha  occ. eigenvalues --  -10.36750 -10.35970 -10.35969 -10.35968 -10.35410
 Alpha  occ. eigenvalues --  -10.34616 -10.34616 -10.34615  -1.06826  -1.00830
 Alpha  occ. eigenvalues --   -1.00828  -0.93015  -0.93014  -0.91909  -0.84674
 Alpha  occ. eigenvalues --   -0.80108  -0.78852  -0.78852  -0.69304  -0.69303
 Alpha  occ. eigenvalues --   -0.68306  -0.68304  -0.64723  -0.60715  -0.60713
 Alpha  occ. eigenvalues --   -0.60542  -0.58167  -0.57786  -0.56199  -0.56195
 Alpha  occ. eigenvalues --   -0.55172  -0.51244  -0.51241  -0.50615  -0.50613
 Alpha  occ. eigenvalues --   -0.42725  -0.42725  -0.42371
 Alpha virt. eigenvalues --   -0.29162  -0.18780  -0.18112  -0.18112  -0.11920
 Alpha virt. eigenvalues --   -0.10204  -0.10202  -0.09206  -0.08280  -0.08280
 Alpha virt. eigenvalues --   -0.08231  -0.08229  -0.07284  -0.05917  -0.05695
 Alpha virt. eigenvalues --   -0.04208  -0.04198  -0.04049  -0.04040  -0.02946
 Alpha virt. eigenvalues --   -0.02945  -0.00716   0.00088   0.00089   0.01310
 Alpha virt. eigenvalues --    0.01311   0.01745   0.01769   0.02253   0.02258
 Alpha virt. eigenvalues --    0.03469   0.03815   0.04331   0.05197   0.05198
 Alpha virt. eigenvalues --    0.06419   0.06444   0.06592   0.06607   0.06608
 Alpha virt. eigenvalues --    0.07050   0.07520   0.08551   0.08555   0.09388
 Alpha virt. eigenvalues --    0.09417   0.10043   0.10055   0.11611   0.11613
 Alpha virt. eigenvalues --    0.11651   0.12261   0.12303   0.13069   0.13876
 Alpha virt. eigenvalues --    0.13881   0.14678   0.15143   0.15144   0.16203
 Alpha virt. eigenvalues --    0.16216   0.17629   0.17933   0.17948   0.18481
 Alpha virt. eigenvalues --    0.19141   0.19158   0.21744   0.22200   0.22208
 Alpha virt. eigenvalues --    0.25771   0.29612   0.30106   0.31850   0.31871
 Alpha virt. eigenvalues --    0.31873   0.34203   0.34205   0.37419   0.37520
 Alpha virt. eigenvalues --    0.39732   0.39735   0.40262   0.40265   0.42202
 Alpha virt. eigenvalues --    0.42210   0.42377   0.43067   0.43088   0.43217
 Alpha virt. eigenvalues --    0.43493   0.43500   0.45388   0.48286   0.48688
 Alpha virt. eigenvalues --    0.49259   0.49277   0.49328   0.49474   0.49476
 Alpha virt. eigenvalues --    0.54889   0.55612   0.55615   0.55882   0.56603
 Alpha virt. eigenvalues --    0.56604   0.58289   0.58290   0.60177   0.60180
 Alpha virt. eigenvalues --    0.62714   0.62789   0.67874   0.67875   0.68325
 Alpha virt. eigenvalues --    0.68819   0.69494   0.69495   0.72696   0.73325
 Alpha virt. eigenvalues --    0.73327   0.77406   0.77416   0.77654   0.78220
 Alpha virt. eigenvalues --    0.78227   0.79164   0.79165   0.80541   0.82799
 Alpha virt. eigenvalues --    0.82805   0.86789   0.87199   0.92704   0.92705
 Alpha virt. eigenvalues --    0.94202   0.94210   0.95843   0.97445   1.01598
 Alpha virt. eigenvalues --    1.01604   1.01668   1.02690   1.03390   1.03394
 Alpha virt. eigenvalues --    1.06156   1.06160   1.20069   1.22530   1.24588
 Alpha virt. eigenvalues --    1.24592   1.32041   1.32043   1.32967   1.33634
 Alpha virt. eigenvalues --    1.33636   1.33925   1.37202   1.40974   1.40979
 Alpha virt. eigenvalues --    1.42279   1.42289   1.52897   1.52908   1.55776
 Alpha virt. eigenvalues --    1.57974   1.61857   1.67528   1.67532   1.67568
 Alpha virt. eigenvalues --    1.67569   1.69586   1.70554   1.70558   1.71359
 Alpha virt. eigenvalues --    1.73960   1.73968   1.74875   1.81433   1.82073
 Alpha virt. eigenvalues --    1.82091   1.85459   1.85465   1.86602   1.88517
 Alpha virt. eigenvalues --    1.88524   1.96355   1.98421   1.98423   2.01355
 Alpha virt. eigenvalues --    2.09089   2.15626   2.15631   2.20620   2.20626
 Alpha virt. eigenvalues --    2.23407   2.23409   2.24966   2.25227   2.26965
 Alpha virt. eigenvalues --    2.26978   2.31252   2.31260   2.33486   2.45530
 Alpha virt. eigenvalues --    2.50211   2.50212   2.51840   2.55762   2.60105
 Alpha virt. eigenvalues --    2.60116   2.60287   2.60288   2.65677   2.67456
 Alpha virt. eigenvalues --    2.67470   2.68818   2.72737   2.74312   2.74313
 Alpha virt. eigenvalues --    2.88187   2.88189   2.93220   3.01836   3.01845
 Alpha virt. eigenvalues --    3.08668   3.09141   3.11082   3.11085   3.12568
 Alpha virt. eigenvalues --    3.15281   3.17102   3.17103   3.20209   3.20214
 Alpha virt. eigenvalues --    3.26813   3.26814   3.31327   3.38945   3.38949
 Alpha virt. eigenvalues --    3.43016   3.47970   3.47981   3.65739   3.72358
 Alpha virt. eigenvalues --    3.81147   3.81150   4.10900   4.10908   4.56065
 Alpha virt. eigenvalues --    4.63466   4.63473  23.06481  23.45443  23.45462
 Alpha virt. eigenvalues --   23.73553  23.73563  23.77069  23.79627  23.84419
 Alpha virt. eigenvalues --   23.84421  23.86048  23.94493  23.94504  23.94854
     Molecular Orbital Coefficients:
                           1         2         3         4         5
                           O         O         O         O         O
     Eigenvalues --   -10.36753 -10.36752 -10.36752 -10.36752 -10.36750
   1 1   C  1S          0.52039   0.19892  -0.05961  -0.00918   0.04514
   2        2S          0.42835   0.16382  -0.04899  -0.00752   0.03722
   3        2PX         0.00005   0.00014  -0.00005  -0.00007  -0.00004
   4        2PY        -0.00037   0.00001   0.00002  -0.00002  -0.00004
   5        2PZ         0.00000   0.00000   0.00000   0.00000   0.00000
   6        3S          0.01783   0.00666  -0.00249  -0.00047   0.00118
   7        3PX        -0.00086  -0.00105   0.00043   0.00050   0.00024
   8        3PY         0.00267  -0.00019  -0.00021   0.00014   0.00022
   9        3PZ         0.00000   0.00000   0.00000   0.00000   0.00000
  10        4S         -0.02061  -0.02029   0.00496   0.00051   0.00485
  11        4PX         0.00438   0.00627  -0.00067  -0.00048  -0.00270
  12        4PY        -0.00562  -0.00720   0.00010  -0.00046   0.00099
  13        4PZ         0.00000   0.00000   0.00000   0.00000   0.00000
  14        5S         -0.06694   0.03434   0.17098  -0.00610   0.00303
  15        5PX         0.02036  -0.00757  -0.04208  -0.00234   0.00463
  16        5PY         0.00332  -0.00045  -0.00604  -0.00886   0.00403
  17        5PZ         0.00000   0.00000   0.00000   0.00000   0.00000
  18        6D 0       -0.00119  -0.00034   0.00015   0.00003  -0.00010
  19        6D+1        0.00000   0.00000   0.00000   0.00000   0.00000
  20        6D-1        0.00000   0.00000   0.00000   0.00000   0.00000
  21        6D+2        0.00000   0.00064  -0.00024  -0.00030  -0.00016
  22        6D-2        0.00124   0.00007  -0.00030  -0.00004   0.00003
  23 2   C  1S          0.00442   0.00881   0.00152  -0.00143   0.00131
  24        2S          0.00379   0.00756   0.00132  -0.00117   0.00114
  25        2PX        -0.00009  -0.00038  -0.00009   0.00003  -0.00007
  26        2PY        -0.00097   0.00039   0.00023  -0.00009   0.00000
  27        2PZ         0.00000   0.00000   0.00000   0.00000   0.00000
  28        3S         -0.00030  -0.00062  -0.00023  -0.00031  -0.00002
  29        3PX         0.00022   0.00136   0.00035   0.00003   0.00036
  30        3PY         0.00437  -0.00184  -0.00084   0.00035   0.00000
  31        3PZ         0.00000   0.00000   0.00000   0.00000   0.00000
  32        4S          0.00674   0.01370   0.00306   0.00006  -0.00199
  33        4PX        -0.00438  -0.00928  -0.00228  -0.00034   0.00142
  34        4PY        -0.00218  -0.00023   0.00119  -0.00047   0.00022
  35        4PZ         0.00000   0.00000   0.00000   0.00000   0.00000
  36        5S         -0.01391  -0.02435   0.00563   0.03635  -0.04458
  37        5PX         0.00172   0.00497   0.00092  -0.00404   0.00930
  38        5PY         0.01095  -0.00229  -0.01208   0.00332   0.00450
  39        5PZ         0.00000   0.00000   0.00000   0.00000   0.00000
  40        6D 0        0.00044   0.00087   0.00015  -0.00014   0.00017
  41        6D+1        0.00000   0.00000   0.00000   0.00000   0.00000
  42        6D-1        0.00000   0.00000   0.00000   0.00000   0.00000
  43        6D+2        0.00080   0.00067   0.00007  -0.00009   0.00020
  44        6D-2       -0.00208   0.00111   0.00048  -0.00020   0.00006
  45 3   C  1S         -0.17463   0.49002   0.18080  -0.09432   0.05845
  46        2S         -0.14367   0.40342   0.14880  -0.07758   0.04817
  47        2PX         0.00011   0.00005   0.00004  -0.00009  -0.00003
  48        2PY        -0.00022   0.00028   0.00008  -0.00004   0.00004
  49        2PZ         0.00000   0.00000   0.00000   0.00000   0.00000
  50        3S         -0.00617   0.01658   0.00642  -0.00359   0.00160
  51        3PX        -0.00055  -0.00079  -0.00044   0.00076   0.00017
  52        3PY         0.00176  -0.00204  -0.00065   0.00032  -0.00025
  53        3PZ         0.00000   0.00000   0.00000   0.00000   0.00000
  54        4S         -0.00201  -0.02549  -0.01321   0.00619   0.00400
  55        4PX         0.00158   0.00514   0.00233  -0.00146  -0.00221
  56        4PY         0.00230   0.00923   0.00391  -0.00094  -0.00047
  57        4PZ         0.00000   0.00000   0.00000   0.00000   0.00000
  58        5S          0.09483   0.02107  -0.13711   0.08448   0.08995
  59        5PX        -0.02461  -0.00129   0.03207  -0.02587  -0.01671
  60        5PY        -0.00180  -0.00129   0.00519   0.00640  -0.00341
  61        5PZ         0.00000   0.00000   0.00000   0.00000   0.00000
  62        6D 0        0.00049  -0.00105  -0.00038   0.00022  -0.00015
  63        6D+1        0.00000   0.00000   0.00000   0.00000   0.00000
  64        6D-1        0.00000   0.00000   0.00000   0.00000   0.00000
  65        6D+2        0.00019   0.00059   0.00037  -0.00050  -0.00005
  66        6D-2        0.00087  -0.00074  -0.00031   0.00013  -0.00013
  67 4   H  1S         -0.00014   0.00037   0.00017  -0.00012  -0.00001
  68        2S         -0.00015  -0.00177  -0.00060   0.00004  -0.00009
  69        3S         -0.00191   0.00025   0.00069  -0.00029   0.00052
  70 5   C  1S         -0.00820   0.01860  -0.00202   0.01117   0.00411
  71        2S         -0.00674   0.01549  -0.00167   0.00929   0.00350
  72        2PX        -0.00010   0.00068   0.00047  -0.00053  -0.00007
  73        2PY        -0.00020   0.00023  -0.00035   0.00053   0.00004
  74        2PZ         0.00000   0.00000   0.00000   0.00000   0.00000
  75        3S         -0.00074   0.00023  -0.00014   0.00022  -0.00048
  76        3PX         0.00016  -0.00291  -0.00190   0.00209   0.00050
  77        3PY         0.00103  -0.00091   0.00154  -0.00209   0.00004
  78        3PZ         0.00000   0.00000   0.00000   0.00000   0.00000
  79        4S         -0.00125   0.01307  -0.00449   0.00463  -0.00017
  80        4PX         0.00619   0.00811   0.00973  -0.00627  -0.00586
  81        4PY        -0.00368  -0.00638  -0.00523   0.00121  -0.00053
  82        4PZ         0.00000   0.00000   0.00000   0.00000   0.00000
  83        5S         -0.01576  -0.00125   0.00640   0.00740   0.00195
  84        5PX        -0.07685   0.00516   0.12273  -0.08295  -0.04819
  85        5PY         0.04015  -0.03686  -0.07168   0.00848  -0.02268
  86        5PZ         0.00000   0.00000   0.00000   0.00000   0.00000
  87        6D 0       -0.00030   0.00063  -0.00008   0.00038   0.00011
  88        6D+1        0.00000   0.00000   0.00000   0.00000   0.00000
  89        6D-1        0.00000   0.00000   0.00000   0.00000   0.00000
  90        6D+2        0.00034  -0.00140  -0.00070   0.00081   0.00001
  91        6D-2       -0.00024   0.00009  -0.00083   0.00136   0.00011
  92 6   C  1S          0.00003   0.00005   0.00002   0.00004   0.00009
  93        2S          0.00006   0.00011   0.00005   0.00008   0.00018
  94        2PX         0.00008   0.00014   0.00006   0.00007  -0.00012
  95        2PY        -0.00015   0.00012  -0.00012   0.00004  -0.00004
  96        2PZ         0.00000   0.00000   0.00000   0.00000   0.00000
  97        3S         -0.00011  -0.00021  -0.00009  -0.00015  -0.00034
  98        3PX        -0.00054  -0.00092  -0.00041  -0.00039   0.00077
  99        3PY         0.00092  -0.00074   0.00077  -0.00025   0.00026
 100        3PZ         0.00000   0.00000   0.00000   0.00000   0.00000
 101        4S         -0.00340  -0.00659  -0.00271  -0.00467  -0.01072
 102        4PX        -0.00398  -0.00714  -0.00218   0.00026   0.00459
 103        4PY         0.00424  -0.00427   0.00590  -0.00170   0.00279
 104        4PZ         0.00000   0.00000   0.00000   0.00000   0.00000
 105        5S         -0.06517  -0.12627  -0.05192  -0.08959  -0.20560
 106        5PX        -0.00006  -0.00124   0.00264   0.00985  -0.00344
 107        5PY        -0.00802   0.00373   0.00069   0.00047   0.00278
 108        5PZ         0.00000   0.00000   0.00000   0.00000   0.00000
 109        6D 0        0.00003   0.00006   0.00003   0.00004   0.00010
 110        6D+1        0.00000   0.00000   0.00000   0.00000   0.00000
 111        6D-1        0.00000   0.00000   0.00000   0.00000   0.00000
 112        6D+2        0.00004   0.00043   0.00017   0.00051  -0.00043
 113        6D-2        0.00069  -0.00033   0.00035   0.00001  -0.00010
 114 7   C  1S          0.01833   0.00235   0.01205   0.00769   0.00406
 115        2S          0.01522   0.00203   0.01003   0.00640   0.00349
 116        2PX         0.00072   0.00045  -0.00033  -0.00020  -0.00012
 117        2PY        -0.00009   0.00026  -0.00065  -0.00031  -0.00015
 118        2PZ         0.00000   0.00000   0.00000   0.00000   0.00000
 119        3S          0.00058  -0.00050   0.00020   0.00016  -0.00072
 120        3PX        -0.00288  -0.00205   0.00120   0.00081   0.00080
 121        3PY         0.00046  -0.00133   0.00266   0.00113   0.00064
 122        3PZ         0.00000   0.00000   0.00000   0.00000   0.00000
 123        4S          0.00987   0.00434   0.00980   0.00060   0.00531
 124        4PX         0.00340   0.01133  -0.00669  -0.00149  -0.00872
 125        4PY         0.00414   0.01022  -0.00331   0.00069  -0.00240
 126        4PZ         0.00000   0.00000   0.00000   0.00000   0.00000
 127        5S          0.00886  -0.01109  -0.00341   0.01117  -0.01292
 128        5PX         0.06289  -0.01331  -0.13705  -0.00815   0.02479
 129        5PY         0.07762   0.01002  -0.08022   0.02899   0.05366
 130        5PZ         0.00000   0.00000   0.00000   0.00000   0.00000
 131        6D 0        0.00063   0.00006   0.00041   0.00025   0.00011
 132        6D+1        0.00000   0.00000   0.00000   0.00000   0.00000
 133        6D-1        0.00000   0.00000   0.00000   0.00000   0.00000
 134        6D+2       -0.00136  -0.00092   0.00098   0.00063   0.00022
 135        6D-2       -0.00049   0.00021  -0.00106  -0.00055  -0.00027
 136 8   C  1S          0.08615  -0.10479   0.46334   0.26400   0.11262
 137        2S          0.07098  -0.08622   0.38139   0.21731   0.09281
 138        2PX         0.00012   0.00002   0.00025   0.00017  -0.00008
 139        2PY         0.00003   0.00009  -0.00017  -0.00009  -0.00007
 140        2PZ         0.00000   0.00000   0.00000   0.00000   0.00000
 141        3S          0.00259  -0.00393   0.01599   0.00891   0.00345
 142        3PX        -0.00084  -0.00015  -0.00164  -0.00116   0.00067
 143        3PY        -0.00012  -0.00073   0.00163   0.00091   0.00042
 144        3PZ         0.00000   0.00000   0.00000   0.00000   0.00000
 145        4S         -0.00072   0.01492  -0.02175  -0.00651  -0.01229
 146        4PX         0.00109  -0.00218   0.00354   0.00183   0.00382
 147        4PY        -0.00067   0.00635  -0.00652  -0.00145  -0.00542
 148        4PZ         0.00000   0.00000   0.00000   0.00000   0.00000
 149        5S          0.10693   0.02997  -0.13578   0.04661   0.09913
 150        5PX         0.01762  -0.00190  -0.01849  -0.00031   0.00929
 151        5PY         0.02313   0.00394  -0.03241   0.00694   0.02020
 152        5PZ         0.00000   0.00000   0.00000   0.00000   0.00000
 153        6D 0       -0.00019   0.00021  -0.00102  -0.00064  -0.00015
 154        6D+1        0.00000   0.00000   0.00000   0.00000   0.00000
 155        6D-1        0.00000   0.00000   0.00000   0.00000   0.00000
 156        6D+2        0.00038   0.00017   0.00054   0.00043  -0.00045
 157        6D-2       -0.00015  -0.00041   0.00090   0.00054   0.00019
 158 9   C  1S          0.00070  -0.00205   0.00511   0.00212   0.00803
 159        2S          0.00064  -0.00175   0.00438   0.00181   0.00690
 160        2PX         0.00022  -0.00005   0.00073   0.00048  -0.00037
 161        2PY        -0.00004  -0.00005  -0.00013  -0.00014   0.00053
 162        2PZ         0.00000   0.00000   0.00000   0.00000   0.00000
 163        3S         -0.00035   0.00022  -0.00031   0.00001  -0.00058
 164        3PX        -0.00111   0.00010  -0.00317  -0.00214   0.00179
 165        3PY         0.00023   0.00010   0.00076   0.00067  -0.00215
 166        3PZ         0.00000   0.00000   0.00000   0.00000   0.00000
 167        4S          0.00325  -0.00676   0.00781   0.00065   0.01106
 168        4PX         0.00084  -0.00237   0.00355   0.00102   0.00224
 169        4PY         0.00231  -0.00403   0.00413  -0.00015   0.00721
 170        4PZ         0.00000   0.00000   0.00000   0.00000   0.00000
 171        5S          0.02667  -0.03085  -0.01693  -0.03549  -0.03562
 172        5PX         0.00532  -0.00318  -0.01454  -0.00212   0.00273
 173        5PY         0.00072  -0.00590   0.00367  -0.00608  -0.00982
 174        5PZ         0.00000   0.00000   0.00000   0.00000   0.00000
 175        6D 0        0.00007  -0.00017   0.00051   0.00023   0.00081
 176        6D+1        0.00000   0.00000   0.00000   0.00000   0.00000
 177        6D-1        0.00000   0.00000   0.00000   0.00000   0.00000
 178        6D+2       -0.00046   0.00012  -0.00155  -0.00102   0.00045
 179        6D-2       -0.00029  -0.00008  -0.00066  -0.00054   0.00144
 180 10  C  1S         -0.08261   0.13577  -0.24674   0.46637   0.09294
 181        2S         -0.06801   0.11182  -0.20308   0.38388   0.07657
 182        2PX        -0.00003   0.00017  -0.00006   0.00023   0.00000
 183        2PY        -0.00004   0.00001  -0.00013   0.00022   0.00001
 184        2PZ         0.00000   0.00000   0.00000   0.00000   0.00000
 185        3S         -0.00285   0.00423  -0.00877   0.01597   0.00292
 186        3PX         0.00022  -0.00116   0.00031  -0.00142   0.00005
 187        3PY         0.00035  -0.00016   0.00112  -0.00197  -0.00010
 188        3PZ         0.00000   0.00000   0.00000   0.00000   0.00000
 189        4S          0.00886   0.00125   0.01837  -0.01805  -0.00689
 190        4PX        -0.00107   0.00077  -0.00127   0.00258   0.00209
 191        4PY        -0.00455  -0.00089  -0.00663   0.00566   0.00269
 192        4PZ         0.00000   0.00000   0.00000   0.00000   0.00000
 193        5S         -0.06419   0.05181   0.15495  -0.03893   0.00427
 194        5PX        -0.01729   0.00802   0.02166  -0.01292   0.00436
 195        5PY         0.01329  -0.00783  -0.03018   0.01040   0.00127
 196        5PZ         0.00000   0.00000   0.00000   0.00000   0.00000
 197        6D 0        0.00017  -0.00031   0.00050  -0.00107  -0.00016
 198        6D+1        0.00000   0.00000   0.00000   0.00000   0.00000
 199        6D-1        0.00000   0.00000   0.00000   0.00000   0.00000
 200        6D+2       -0.00011   0.00046  -0.00028   0.00088  -0.00001
 201        6D-2        0.00010   0.00027   0.00052  -0.00071  -0.00011
 202 11  H  1S         -0.00010   0.00003  -0.00023   0.00037   0.00003
 203        2S          0.00067  -0.00028   0.00081  -0.00119  -0.00059
 204        3S          0.00084   0.00076  -0.00039   0.00133   0.00011
 205 12  C  1S         -0.00132  -0.00386  -0.00298  -0.00673   0.01974
 206        2S         -0.00107  -0.00316  -0.00244  -0.00550   0.01647
 207        2PX         0.00009   0.00020   0.00010   0.00016  -0.00044
 208        2PY        -0.00004   0.00006  -0.00008   0.00005  -0.00052
 209        2PZ         0.00000   0.00000   0.00000   0.00000   0.00000
 210        3S         -0.00020  -0.00045  -0.00036  -0.00090   0.00003
 211        3PX        -0.00051  -0.00106  -0.00053  -0.00070   0.00171
 212        3PY         0.00031  -0.00046   0.00070  -0.00032   0.00214
 213        3PZ         0.00000   0.00000   0.00000   0.00000   0.00000
 214        4S         -0.00302  -0.00655  -0.00084   0.00247   0.01252
 215        4PX         0.00147   0.00111   0.00136   0.00093   0.00405
 216        4PY        -0.00719   0.00564  -0.00820   0.00250  -0.00652
 217        4PZ         0.00000   0.00000   0.00000   0.00000   0.00000
 218        5S          0.00321   0.00553  -0.00548  -0.02354  -0.00024
 219        5PX         0.01772   0.02571  -0.00845  -0.00101   0.05230
 220        5PY        -0.04623  -0.00457   0.14106  -0.04060  -0.05916
 221        5PZ         0.00000   0.00000   0.00000   0.00000   0.00000
 222        6D 0       -0.00006  -0.00015  -0.00011  -0.00025   0.00065
 223        6D+1        0.00000   0.00000   0.00000   0.00000   0.00000
 224        6D-1        0.00000   0.00000   0.00000   0.00000   0.00000
 225        6D+2       -0.00014  -0.00033  -0.00014  -0.00030   0.00112
 226        6D-2        0.00003  -0.00004  -0.00016   0.00001  -0.00079
 227 13  C  1S         -0.00120   0.00085  -0.00351   0.00469   0.00304
 228        2S         -0.00105   0.00076  -0.00300   0.00401   0.00266
 229        2PX        -0.00011   0.00031  -0.00030   0.00073  -0.00002
 230        2PY        -0.00002   0.00015  -0.00006   0.00030  -0.00020
 231        2PZ         0.00000   0.00000   0.00000   0.00000   0.00000
 232        3S          0.00032  -0.00024   0.00027  -0.00015  -0.00044
 233        3PX         0.00049  -0.00155   0.00117  -0.00313   0.00022
 234        3PY         0.00016  -0.00072   0.00037  -0.00146   0.00096
 235        3PZ         0.00000   0.00000   0.00000   0.00000   0.00000
 236        4S         -0.00580   0.00120  -0.00753   0.00507   0.00418
 237        4PX        -0.00244   0.00053  -0.00360   0.00320   0.00196
 238        4PY         0.00334  -0.00079   0.00374  -0.00175  -0.00228
 239        4PZ         0.00000   0.00000   0.00000   0.00000   0.00000
 240        5S         -0.04084   0.00093  -0.01089  -0.03939  -0.00823
 241        5PX        -0.00831  -0.00222   0.00859  -0.00974  -0.00479
 242        5PY         0.00285   0.00065   0.00934   0.00141   0.00178
 243        5PZ         0.00000   0.00000   0.00000   0.00000   0.00000
 244        6D 0       -0.00010   0.00010  -0.00033   0.00048   0.00032
 245        6D+1        0.00000   0.00000   0.00000   0.00000   0.00000
 246        6D-1        0.00000   0.00000   0.00000   0.00000   0.00000
 247        6D+2        0.00026  -0.00082   0.00066  -0.00178   0.00021
 248        6D-2       -0.00002   0.00018   0.00008   0.00014  -0.00044
 249 14  H  1S          0.00009  -0.00005   0.00013  -0.00013  -0.00013
 250        2S         -0.00062   0.00009  -0.00058   0.00014   0.00025
 251        3S         -0.00047   0.00057  -0.00131   0.00188   0.00154
 252 15  C  1S         -0.01462  -0.06458  -0.02708  -0.10170   0.15067
 253        2S         -0.01203  -0.05312  -0.02231  -0.08365   0.12413
 254        2PX        -0.00001   0.00007   0.00002   0.00009  -0.00006
 255        2PY        -0.00004   0.00007  -0.00008   0.00016  -0.00013
 256        2PZ         0.00000   0.00000   0.00000   0.00000   0.00000
 257        3S         -0.00068  -0.00234  -0.00087  -0.00370   0.00458
 258        3PX         0.00005  -0.00059  -0.00006  -0.00082   0.00045
 259        3PY         0.00025  -0.00044   0.00054  -0.00107   0.00077
 260        3PZ         0.00000   0.00000   0.00000   0.00000   0.00000
 261        4S          0.00890  -0.00110   0.00814  -0.00073  -0.00162
 262        4PX         0.00391  -0.00120   0.00501  -0.00146  -0.00135
 263        4PY        -0.00100  -0.00068  -0.00062  -0.00003  -0.00141
 264        4PZ         0.00000   0.00000   0.00000   0.00000   0.00000
 265        5S          0.07687   0.02396  -0.12975   0.06441   0.11205
 266        5PX         0.01176   0.00087  -0.01782   0.01112   0.01202
 267        5PY        -0.00820  -0.00927   0.02928  -0.00816  -0.02298
 268        5PZ         0.00000   0.00000   0.00000   0.00000   0.00000
 269        6D 0       -0.00003   0.00018   0.00003   0.00031  -0.00032
 270        6D+1        0.00000   0.00000   0.00000   0.00000   0.00000
 271        6D-1        0.00000   0.00000   0.00000   0.00000   0.00000
 272        6D+2       -0.00006   0.00023  -0.00005   0.00046  -0.00012
 273        6D-2        0.00013  -0.00019   0.00031  -0.00050   0.00036
 274 16  H  1S         -0.00004  -0.00006  -0.00006  -0.00011   0.00003
 275        2S          0.00036  -0.00015   0.00065  -0.00005  -0.00060
 276        3S          0.00050  -0.00043   0.00157  -0.00117   0.00028
 277 17  C  1S         -0.02543  -0.05561  -0.06402  -0.10029   0.51656
 278        2S         -0.02091  -0.04577  -0.05263  -0.08251   0.42527
 279        2PX         0.00006   0.00003   0.00008   0.00010  -0.00030
 280        2PY        -0.00004   0.00003  -0.00015  -0.00008   0.00009
 281        2PZ         0.00000   0.00000   0.00000   0.00000   0.00000
 282        3S         -0.00085  -0.00207  -0.00242  -0.00358   0.01740
 283        3PX        -0.00043  -0.00023  -0.00078  -0.00081   0.00234
 284        3PY         0.00023  -0.00024   0.00097   0.00048  -0.00023
 285        3PZ         0.00000   0.00000   0.00000   0.00000   0.00000
 286        4S         -0.00547   0.00926  -0.00535   0.00339  -0.02297
 287        4PX        -0.00262   0.00391  -0.00421   0.00123  -0.00901
 288        4PY        -0.00042   0.00204  -0.00086   0.00045  -0.00072
 289        4PZ         0.00000   0.00000   0.00000   0.00000   0.00000
 290        5S         -0.05059   0.02614   0.15327  -0.01744  -0.00328
 291        5PX        -0.00927   0.00273   0.01594   0.00111  -0.00134
 292        5PY        -0.00411   0.00205   0.03457  -0.00884  -0.00623
 293        5PZ         0.00000   0.00000   0.00000   0.00000   0.00000
 294        6D 0        0.00011   0.00008   0.00021   0.00028  -0.00113
 295        6D+1        0.00000   0.00000   0.00000   0.00000   0.00000
 296        6D-1        0.00000   0.00000   0.00000   0.00000   0.00000
 297        6D+2        0.00010   0.00009   0.00015   0.00026  -0.00096
 298        6D-2        0.00018  -0.00011   0.00063   0.00036  -0.00036
 299 18  H  1S         -0.00002  -0.00008  -0.00004  -0.00012   0.00037
 300        2S         -0.00028   0.00043  -0.00049   0.00029  -0.00166
 301        3S         -0.00029   0.00073  -0.00191  -0.00019   0.00096
 302 19  H  1S         -0.00015  -0.00030  -0.00007  -0.00002  -0.00002
 303        2S          0.00039   0.00081   0.00024   0.00020  -0.00038
 304        3S          0.00181   0.00360   0.00070  -0.00029   0.00076
 305 20  H  1S          0.00041   0.00016  -0.00009  -0.00003  -0.00005
 306        2S         -0.00136  -0.00128  -0.00010  -0.00014   0.00012
 307        3S          0.00152  -0.00110  -0.00091   0.00024   0.00095
 308 21  H  1S          0.00003  -0.00016   0.00036   0.00020   0.00005
 309        2S         -0.00045   0.00073  -0.00122  -0.00061  -0.00098
 310        3S         -0.00011   0.00085   0.00138   0.00082  -0.00109
 311 22  H  1S         -0.00007   0.00009  -0.00016  -0.00004  -0.00027
 312        2S          0.00037  -0.00063   0.00045  -0.00015   0.00057
 313        3S          0.00047  -0.00067   0.00205   0.00089   0.00341
                           6         7         8         9        10
                           O         O         O         O         O
     Eigenvalues --   -10.36750 -10.35970 -10.35969 -10.35968 -10.35410
   1 1   C  1S          0.02105  -0.01223  -0.01157   0.00099   0.00060
   2        2S          0.01736  -0.00990  -0.00948   0.00085   0.00054
   3        2PX         0.00000  -0.00056  -0.00043   0.00008  -0.00004
   4        2PY        -0.00001  -0.00011  -0.00010   0.00002  -0.00002
   5        2PZ         0.00000   0.00000   0.00000   0.00000   0.00000
   6        3S          0.00048  -0.00097  -0.00005  -0.00025  -0.00022
   7        3PX        -0.00001   0.00217   0.00141  -0.00038   0.00045
   8        3PY         0.00007   0.00044   0.00055  -0.00020   0.00004
   9        3PZ         0.00000   0.00000   0.00000   0.00000   0.00000
  10        4S          0.00214   0.00445   0.00021   0.00774   0.00002
  11        4PX        -0.00097  -0.00268  -0.00027  -0.00237  -0.00013
  12        4PY        -0.00044   0.00265   0.00246   0.00160  -0.00308
  13        4PZ         0.00000   0.00000   0.00000   0.00000   0.00000
  14        5S          0.11340  -0.02268  -0.00778   0.02761  -0.05073
  15        5PX        -0.02556   0.00676   0.00066  -0.00918   0.01076
  16        5PY        -0.00233   0.00258  -0.00478  -0.00319   0.00168
  17        5PZ         0.00000   0.00000   0.00000   0.00000   0.00000
  18        6D 0       -0.00008   0.00047   0.00048  -0.00004  -0.00002
  19        6D+1        0.00000   0.00000   0.00000   0.00000   0.00000
  20        6D-1        0.00000   0.00000   0.00000   0.00000   0.00000
  21        6D+2        0.00001  -0.00111  -0.00084   0.00015  -0.00030
  22        6D-2        0.00005  -0.00005  -0.00006  -0.00005   0.00002
  23 2   C  1S          0.00064  -0.00075  -0.00006  -0.00036  -0.00039
  24        2S          0.00056  -0.00052  -0.00006  -0.00027  -0.00026
  25        2PX        -0.00004  -0.00003   0.00001  -0.00001  -0.00001
  26        2PY         0.00002  -0.00003  -0.00010   0.00007   0.00000
  27        2PZ         0.00000   0.00000   0.00000   0.00000   0.00000
  28        3S          0.00000  -0.00039   0.00006  -0.00005  -0.00044
  29        3PX         0.00019   0.00049  -0.00008   0.00021   0.00019
  30        3PY        -0.00013   0.00024   0.00077  -0.00052   0.00002
  31        3PZ         0.00000   0.00000   0.00000   0.00000   0.00000
  32        4S         -0.00112  -0.00406  -0.00208  -0.00444   0.00474
  33        4PX         0.00081   0.00296   0.00101   0.00254  -0.00200
  34        4PY        -0.00001   0.00030   0.00026   0.00010  -0.00017
  35        4PZ         0.00000   0.00000   0.00000   0.00000   0.00000
  36        5S         -0.02337  -0.00038   0.01488   0.02111   0.02503
  37        5PX         0.00567  -0.00173  -0.00143  -0.00234  -0.00805
  38        5PY        -0.00733   0.00028   0.00160  -0.00140  -0.00069
  39        5PZ         0.00000   0.00000   0.00000   0.00000   0.00000
  40        6D 0        0.00008   0.00006   0.00000   0.00002   0.00001
  41        6D+1        0.00000   0.00000   0.00000   0.00000   0.00000
  42        6D-1        0.00000   0.00000   0.00000   0.00000   0.00000
  43        6D+2        0.00009   0.00023   0.00007   0.00003   0.00004
  44        6D-2        0.00008  -0.00006  -0.00040   0.00030   0.00001
  45 3   C  1S          0.02956  -0.00726   0.00819  -0.01284   0.00060
  46        2S          0.02436  -0.00583   0.00670  -0.01048   0.00054
  47        2PX        -0.00004  -0.00036   0.00038  -0.00050  -0.00004
  48        2PY         0.00002   0.00000  -0.00002   0.00002   0.00001
  49        2PZ         0.00000   0.00000   0.00000   0.00000   0.00000
  50        3S          0.00086  -0.00093   0.00010  -0.00036  -0.00022
  51        3PX         0.00022   0.00146  -0.00151   0.00169   0.00045
  52        3PY        -0.00014   0.00007   0.00022  -0.00023   0.00004
  53        3PZ         0.00000   0.00000   0.00000   0.00000   0.00000
  54        4S          0.00265   0.00577   0.00548   0.00405   0.00002
  55        4PX        -0.00144  -0.00252  -0.00119  -0.00111  -0.00066
  56        4PY        -0.00136  -0.00248  -0.00009  -0.00366   0.00301
  57        4PZ         0.00000   0.00000   0.00000   0.00000   0.00000
  58        5S         -0.06674  -0.01208   0.03449  -0.00198  -0.05067
  59        5PX         0.02011   0.00441  -0.01091  -0.00209   0.01085
  60        5PY        -0.00145  -0.00247   0.00046   0.00462   0.00021
  61        5PZ         0.00000   0.00000   0.00000   0.00000   0.00000
  62        6D 0       -0.00005   0.00027  -0.00033   0.00053  -0.00002
  63        6D+1        0.00000   0.00000   0.00000   0.00000   0.00000
  64        6D-1        0.00000   0.00000   0.00000   0.00000   0.00000
  65        6D+2       -0.00013  -0.00069   0.00069  -0.00092  -0.00028
  66        6D-2       -0.00006  -0.00021   0.00026  -0.00025  -0.00012
  67 4   H  1S         -0.00003  -0.00013   0.00005  -0.00009   0.00000
  68        2S          0.00019   0.00024  -0.00008   0.00029  -0.00062
  69        3S          0.00089   0.00109  -0.00061   0.00184  -0.00058
  70 5   C  1S          0.00233   0.25829  -0.26434   0.42325  -0.02301
  71        2S          0.00201   0.21265  -0.21753   0.34827  -0.01881
  72        2PX        -0.00009  -0.00006   0.00002   0.00005  -0.00033
  73        2PY         0.00013  -0.00014  -0.00002   0.00007  -0.00070
  74        2PZ         0.00000   0.00000   0.00000   0.00000   0.00000
  75        3S         -0.00052   0.00850  -0.00920   0.01493  -0.00095
  76        3PX         0.00065   0.00034  -0.00014  -0.00033   0.00119
  77        3PY        -0.00061   0.00083   0.00017  -0.00048   0.00256
  78        3PZ         0.00000   0.00000   0.00000   0.00000   0.00000
  79        4S          0.00665  -0.01009   0.01345  -0.02287   0.00600
  80        4PX        -0.00680  -0.00167  -0.00944   0.00045  -0.00327
  81        4PY         0.00140   0.00055  -0.00085   0.01053  -0.00699
  82        4PZ         0.00000   0.00000   0.00000   0.00000   0.00000
  83        5S         -0.01655   0.00719  -0.01694   0.03118   0.00686
  84        5PX         0.08152   0.00297  -0.02701  -0.01822   0.01652
  85        5PY        -0.04653   0.02158   0.01370  -0.00365   0.03546
  86        5PZ         0.00000   0.00000   0.00000   0.00000   0.00000
  87        6D 0        0.00006  -0.00067   0.00069  -0.00111   0.00063
  88        6D+1        0.00000   0.00000   0.00000   0.00000   0.00000
  89        6D-1        0.00000   0.00000   0.00000   0.00000   0.00000
  90        6D+2        0.00009   0.00040  -0.00003  -0.00005   0.00087
  91        6D-2        0.00029  -0.00046   0.00008   0.00009  -0.00103
  92 6   C  1S          0.00005   0.03866  -0.00887   0.00126   0.56146
  93        2S          0.00009   0.03203  -0.00735   0.00105   0.46205
  94        2PX        -0.00007   0.00012   0.00061   0.00076   0.00000
  95        2PY         0.00005  -0.00019  -0.00074   0.00062   0.00000
  96        2PZ         0.00000   0.00000   0.00000   0.00000   0.00000
  97        3S         -0.00017   0.00114  -0.00026   0.00004   0.01969
  98        3PX         0.00046  -0.00044  -0.00233  -0.00290   0.00001
  99        3PY        -0.00036   0.00072   0.00282  -0.00237   0.00000
 100        3PZ         0.00000   0.00000   0.00000   0.00000   0.00000
 101        4S         -0.00545   0.00822  -0.00189   0.00026  -0.03291
 102        4PX         0.00293   0.00230   0.01210   0.01510   0.00000
 103        4PY        -0.00444  -0.00375  -0.01464   0.01230   0.00000
 104        4PZ         0.00000   0.00000   0.00000   0.00000   0.00000
 105        5S         -0.10460   0.08905  -0.02046   0.00284   0.20981
 106        5PX        -0.00127   0.00205   0.01092   0.01362  -0.00004
 107        5PY        -0.00568  -0.00339  -0.01321   0.01110  -0.00001
 108        5PZ         0.00000   0.00000   0.00000   0.00000   0.00000
 109        6D 0        0.00005   0.00089  -0.00020   0.00003  -0.00145
 110        6D+1        0.00000   0.00000   0.00000   0.00000   0.00000
 111        6D-1        0.00000   0.00000   0.00000   0.00000   0.00000
 112        6D+2       -0.00024   0.00011   0.00067   0.00151   0.00000
 113        6D-2       -0.00001   0.00036   0.00147  -0.00068   0.00000
 114 7   C  1S          0.00153   0.41895   0.37371  -0.02349  -0.02298
 115        2S          0.00130   0.34485   0.30748  -0.01932  -0.01879
 116        2PX        -0.00002  -0.00007   0.00007   0.00002  -0.00044
 117        2PY         0.00005   0.00010  -0.00010   0.00003   0.00063
 118        2PZ         0.00000   0.00000   0.00000   0.00000   0.00000
 119        3S         -0.00011   0.01418   0.01335  -0.00085  -0.00095
 120        3PX         0.00014   0.00038  -0.00049  -0.00014   0.00162
 121        3PY        -0.00040  -0.00054   0.00067  -0.00019  -0.00231
 122        3PZ         0.00000   0.00000   0.00000   0.00000   0.00000
 123        4S         -0.00415  -0.01882  -0.02121   0.00140   0.00600
 124        4PX        -0.00112   0.00215   0.00525  -0.00803  -0.00442
 125        4PY         0.00097  -0.00285  -0.00878  -0.00470   0.00632
 126        4PZ         0.00000   0.00000   0.00000   0.00000   0.00000
 127        5S          0.01089   0.01916   0.03064  -0.00213   0.00686
 128        5PX        -0.08478   0.00972  -0.01193  -0.02718   0.02247
 129        5PY        -0.02525  -0.01309   0.01236  -0.02092  -0.03204
 130        5PZ         0.00000   0.00000   0.00000   0.00000   0.00000
 131        6D 0        0.00004  -0.00109  -0.00098   0.00006   0.00063
 132        6D+1        0.00000   0.00000   0.00000   0.00000   0.00000
 133        6D-1        0.00000   0.00000   0.00000   0.00000   0.00000
 134        6D+2       -0.00006   0.00019  -0.00009   0.00004   0.00046
 135        6D-2        0.00007   0.00053  -0.00025   0.00002   0.00127
 136 8   C  1S          0.03209  -0.01225  -0.01163   0.00048   0.00060
 137        2S          0.02641  -0.00991  -0.00954   0.00037   0.00054
 138        2PX         0.00005   0.00029   0.00025   0.00002   0.00003
 139        2PY         0.00003   0.00049   0.00038   0.00002   0.00003
 140        2PZ         0.00000   0.00000   0.00000   0.00000   0.00000
 141        3S          0.00108  -0.00097  -0.00001   0.00023  -0.00022
 142        3PX        -0.00040  -0.00115  -0.00104  -0.00019  -0.00019
 143        3PY        -0.00016  -0.00188  -0.00117  -0.00016  -0.00041
 144        3PZ         0.00000   0.00000   0.00000   0.00000   0.00000
 145        4S          0.00020   0.00466  -0.00099  -0.00755   0.00002
 146        4PX         0.00036  -0.00160  -0.00209   0.00099   0.00294
 147        4PY         0.00104   0.00350   0.00065  -0.00281  -0.00093
 148        4PZ         0.00000   0.00000   0.00000   0.00000   0.00000
 149        5S         -0.07135  -0.02196  -0.01204  -0.02667  -0.05068
 150        5PX        -0.00199  -0.00456   0.00324  -0.00687  -0.00524
 151        5PY        -0.01631  -0.00527  -0.00343  -0.00724  -0.00950
 152        5PZ         0.00000   0.00000   0.00000   0.00000   0.00000
 153        6D 0       -0.00009   0.00047   0.00048  -0.00002  -0.00002
 154        6D+1        0.00000   0.00000   0.00000   0.00000   0.00000
 155        6D-1        0.00000   0.00000   0.00000   0.00000   0.00000
 156        6D+2        0.00024   0.00082   0.00062   0.00007   0.00024
 157        6D-2       -0.00001  -0.00075  -0.00059   0.00001  -0.00018
 158 9   C  1S         -0.00194  -0.00076  -0.00001   0.00034  -0.00039
 159        2S         -0.00163  -0.00053  -0.00002   0.00026  -0.00026
 160        2PX         0.00018   0.00004   0.00010   0.00005   0.00001
 161        2PY        -0.00014   0.00002  -0.00005  -0.00003   0.00001
 162        2PZ         0.00000   0.00000   0.00000   0.00000   0.00000
 163        3S         -0.00011  -0.00040   0.00007   0.00003  -0.00044
 164        3PX        -0.00076  -0.00038  -0.00075  -0.00032  -0.00008
 165        3PY         0.00039  -0.00039   0.00040   0.00030  -0.00018
 166        3PZ         0.00000   0.00000   0.00000   0.00000   0.00000
 167        4S         -0.00277  -0.00418  -0.00137   0.00459   0.00474
 168        4PX         0.00029  -0.00133  -0.00044   0.00101   0.00085
 169        4PY        -0.00198  -0.00274  -0.00048   0.00238   0.00182
 170        4PZ         0.00000   0.00000   0.00000   0.00000   0.00000
 171        5S          0.01415   0.00025   0.01141  -0.02318   0.02506
 172        5PX        -0.00774   0.00039  -0.00133  -0.00193   0.00343
 173        5PY         0.00385   0.00178   0.00161  -0.00194   0.00732
 174        5PZ         0.00000   0.00000   0.00000   0.00000   0.00000
 175        6D 0       -0.00018   0.00006   0.00000  -0.00002   0.00001
 176        6D+1        0.00000   0.00000   0.00000   0.00000   0.00000
 177        6D-1        0.00000   0.00000   0.00000   0.00000   0.00000
 178        6D+2       -0.00024  -0.00021  -0.00034  -0.00012  -0.00003
 179        6D-2       -0.00041   0.00011  -0.00029  -0.00020   0.00003
 180 10  C  1S          0.06494  -0.00736   0.00774  -0.01308   0.00060
 181        2S          0.05354  -0.00592   0.00628  -0.01070   0.00054
 182        2PX        -0.00011   0.00024  -0.00019   0.00037   0.00003
 183        2PY         0.00005  -0.00029   0.00022  -0.00040  -0.00003
 184        2PZ         0.00000   0.00000   0.00000   0.00000   0.00000
 185        3S          0.00191  -0.00084   0.00053  -0.00015  -0.00022
 186        3PX         0.00087  -0.00099   0.00063  -0.00151  -0.00026
 187        3PY        -0.00026   0.00123  -0.00070   0.00130   0.00037
 188        3PZ         0.00000   0.00000   0.00000   0.00000   0.00000
 189        4S         -0.00992   0.00289  -0.00803  -0.00262   0.00002
 190        4PX         0.00196  -0.00015   0.00131  -0.00179   0.00274
 191        4PY         0.00541  -0.00243   0.00415  -0.00067   0.00143
 192        4PZ         0.00000   0.00000   0.00000   0.00000   0.00000
[...]
  10         O               -10.354105         15.953184
  11         O               -10.346164         15.953965
  12         O               -10.346162         15.954028
  13         O               -10.346150         15.954017
  14         O                -1.068265          1.482176
  15         O                -1.008301          1.532284
  16         O                -1.008276          1.532268
  17         O                -0.930148          1.640275
  18         O                -0.930143          1.640295
  19         O                -0.919093          1.680118
  20         O                -0.846739          1.657489
  21         O                -0.801083          1.484914
  22         O                -0.788523          1.498296
  23         O                -0.788518          1.498348
  24         O                -0.693045          1.353765
  25         O                -0.693033          1.353859
  26         O                -0.683062          1.385046
  27         O                -0.683044          1.385030
  28         O                -0.647225          1.177851
  29         O                -0.607150          1.411605
  30         O                -0.607129          1.411583
  31         O                -0.605419          1.501462
  32         O                -0.581668          0.913825
  33         O                -0.577856          1.399783
  34         O                -0.561989          1.365543
  35         O                -0.561952          1.365627
  36         O                -0.551721          1.471366
  37         O                -0.512435          1.015241
  38         O                -0.512413          1.015252
  39         O                -0.506148          1.580719
  40         O                -0.506133          1.580771
  41         O                -0.427254          1.161218
  42         O                -0.427248          1.161242
  43         O                -0.423711          1.186460
  44         V                -0.291617          1.306010
  45         V                -0.187799          1.348550
  46         V                -0.181123          1.395344
  47         V                -0.181119          1.395399
  48         V                -0.119205          0.374770
  49         V                -0.102036          0.373654
  50         V                -0.102023          0.373671
  51         V                -0.092057          0.331802
  52         V                -0.082802          0.399112
  53         V                -0.082799          0.399050
  54         V                -0.082307          1.272854
  55         V                -0.082292          1.273015
  56         V                -0.072844          0.251692
  57         V                -0.059171          0.458772
  58         V                -0.056946          0.349925
  59         V                -0.042080          0.379409
  60         V                -0.041976          0.378999
  61         V                -0.040487          0.337059
  62         V                -0.040405          0.337293
  63         V                -0.029456          0.472622
  64         V                -0.029446          0.472523
  65         V                -0.007161          0.327039
  66         V                 0.000883          0.542972
  67         V                 0.000889          0.543629
  68         V                 0.013102          0.496822
  69         V                 0.013111          0.496674
  70         V                 0.017451          0.671220
  71         V                 0.017689          0.636126
  72         V                 0.022528          0.414400
  73         V                 0.022578          0.414975
  74         V                 0.034690          0.307791
  75         V                 0.038151          0.544897
  76         V                 0.043313          0.802042
  77         V                 0.051975          0.814442
  78         V                 0.051982          0.814320
  79         V                 0.064192          0.369547
  80         V                 0.064443          0.369349
  81         V                 0.065921          0.584481
  82         V                 0.066067          0.933260
  83         V                 0.066082          0.932227
  84         V                 0.070495          1.628396
  85         V                 0.075196          0.372070
  86         V                 0.085512          1.203136
  87         V                 0.085548          1.202782
  88         V                 0.093881          0.356072
  89         V                 0.094169          0.355938
  90         V                 0.100430          1.018316
  91         V                 0.100554          0.661622
  92         V                 0.116112          1.260009
  93         V                 0.116133          1.259342
  94         V                 0.116512          0.458059
  95         V                 0.122611          0.471951
  96         V                 0.123028          0.476567
  97         V                 0.130685          1.267043
  98         V                 0.138763          0.962277
  99         V                 0.138809          0.957973
 100         V                 0.146781          0.470997
 101         V                 0.151434          1.085947
 102         V                 0.151437          1.086136
 103         V                 0.162030          1.027077
 104         V                 0.162160          1.027250
 105         V                 0.176290          1.321309
 106         V                 0.179329          0.754631
 107         V                 0.179481          0.762039
 108         V                 0.184812          0.889458
 109         V                 0.191408          0.780471
 110         V                 0.191575          0.774717
 111         V                 0.217439          0.786712
 112         V                 0.222004          0.821174
 113         V                 0.222082          0.820236
 114         V                 0.257715          0.669229
 115         V                 0.296123          1.478451
 116         V                 0.301064          2.647497
 117         V                 0.318495          1.901552
 118         V                 0.318707          1.201876
 119         V                 0.318735          1.195508
 120         V                 0.342034          2.069086
 121         V                 0.342050          2.069576
 122         V                 0.374193          1.388751
 123         V                 0.375195          1.700098
 124         V                 0.397318          1.457973
 125         V                 0.397353          1.457492
 126         V                 0.402621          1.386268
 127         V                 0.402647          1.386267
 128         V                 0.422018          1.473092
 129         V                 0.422103          1.472979
 130         V                 0.423766          1.552782
 131         V                 0.430672          1.765443
 132         V                 0.430883          1.770652
 133         V                 0.432169          1.687593
 134         V                 0.434931          1.747631
 135         V                 0.434999          1.741328
 136         V                 0.453878          1.484384
 137         V                 0.482859          1.485329
 138         V                 0.486881          1.971121
 139         V                 0.492593          1.824941
 140         V                 0.492771          1.824703
 141         V                 0.493276          1.503145
 142         V                 0.494745          1.570993
 143         V                 0.494763          1.570984
 144         V                 0.548890          2.222011
 145         V                 0.556122          1.587753
 146         V                 0.556146          1.587825
 147         V                 0.558821          2.113043
 148         V                 0.566033          2.120353
 149         V                 0.566043          2.120139
 150         V                 0.582886          2.308880
 151         V                 0.582898          2.309320
 152         V                 0.601767          2.196595
 153         V                 0.601795          2.197006
 154         V                 0.627135          1.846979
 155         V                 0.627892          1.668615
 156         V                 0.678740          1.823257
 157         V                 0.678749          1.823349
 158         V                 0.683247          2.011696
 159         V                 0.688194          1.561330
 160         V                 0.694937          2.122694
 161         V                 0.694953          2.122608
 162         V                 0.726964          1.786968
 163         V                 0.733247          2.244001
 164         V                 0.733265          2.243572
 165         V                 0.774061          2.350700
 166         V                 0.774156          2.341605
 167         V                 0.776541          2.678799
 168         V                 0.782201          2.199505
 169         V                 0.782268          2.190885
 170         V                 0.791640          1.911492
 171         V                 0.791655          1.911521
 172         V                 0.805412          1.880841
 173         V                 0.827991          1.939357
 174         V                 0.828050          1.938353
 175         V                 0.867892          2.390866
 176         V                 0.871990          2.021828
 177         V                 0.927038          2.062808
 178         V                 0.927052          2.062843
 179         V                 0.942019          1.970344
 180         V                 0.942101          1.970542
 181         V                 0.958427          2.086615
 182         V                 0.974450          2.333499
 183         V                 1.015982          2.204109
 184         V                 1.016037          2.204170
 185         V                 1.016677          1.837492
 186         V                 1.026904          2.221735
 187         V                 1.033899          2.242115
 188         V                 1.033937          2.242131
 189         V                 1.061564          2.269121
 190         V                 1.061604          2.269206
 191         V                 1.200690          2.644814
 192         V                 1.225300          2.551946
 193         V                 1.245877          2.276828
 194         V                 1.245917          2.276683
 195         V                 1.320410          2.590643
 196         V                 1.320426          2.591367
 197         V                 1.329673          2.485693
 198         V                 1.336335          2.537820
 199         V                 1.336357          2.538758
 200         V                 1.339246          2.701188
 201         V                 1.372015          2.831971
 202         V                 1.409740          2.599145
 203         V                 1.409789          2.599212
 204         V                 1.422793          2.996492
 205         V                 1.422894          2.996516
 206         V                 1.528973          3.095240
 207         V                 1.529081          3.095344
 208         V                 1.557764          3.053952
 209         V                 1.579737          3.130932
 210         V                 1.618570          2.857725
 211         V                 1.675276          2.922224
 212         V                 1.675321          2.922273
 213         V                 1.675677          3.147369
 214         V                 1.675691          3.147378
 215         V                 1.695857          3.114842
 216         V                 1.705536          2.968366
 217         V                 1.705579          2.968391
 218         V                 1.713589          3.078679
 219         V                 1.739604          3.258985
 220         V                 1.739677          3.259133
 221         V                 1.748749          3.139812
 222         V                 1.814326          3.298759
 223         V                 1.820735          3.173354
 224         V                 1.820907          3.173338
 225         V                 1.854588          3.326139
 226         V                 1.854649          3.326237
 227         V                 1.866016          3.591185
 228         V                 1.885170          3.828153
 229         V                 1.885238          3.828408
 230         V                 1.963549          3.865962
 231         V                 1.984213          3.940279
 232         V                 1.984226          3.940175
 233         V                 2.013547          3.217493
 234         V                 2.090892          3.865785
 235         V                 2.156255          4.386641
 236         V                 2.156308          4.386642
 237         V                 2.206196          4.250533
 238         V                 2.206264          4.250450
 239         V                 2.234067          3.538295
 240         V                 2.234095          3.538314
 241         V                 2.249659          4.549887
 242         V                 2.252266          4.291301
 243         V                 2.269651          4.469061
 244         V                 2.269775          4.469135
 245         V                 2.312516          4.180196
 246         V                 2.312598          4.180231
 247         V                 2.334865          4.545463
 248         V                 2.455295          6.350586
 249         V                 2.502110          6.313163
 250         V                 2.502119          6.313178
 251         V                 2.518400          5.003095
 252         V                 2.557622          4.157976
 253         V                 2.601052          4.686843
 254         V                 2.601165          4.687317
 255         V                 2.602867          6.260128
 256         V                 2.602884          6.260111
 257         V                 2.656771          6.225634
 258         V                 2.674560          4.824548
 259         V                 2.674697          4.824720
 260         V                 2.688176          6.295276
 261         V                 2.727369          6.409350
 262         V                 2.743118          6.387336
 263         V                 2.743131          6.387318
 264         V                 2.881871          6.398192
 265         V                 2.881892          6.398146
 266         V                 2.932200          6.584954
 267         V                 3.018362          7.267543
 268         V                 3.018451          7.267690
 269         V                 3.086681          7.348244
 270         V                 3.091410          6.079693
 271         V                 3.110816          6.941159
 272         V                 3.110848          6.941258
 273         V                 3.125682          6.810050
 274         V                 3.152810          6.700472
 275         V                 3.171017          6.768967
 276         V                 3.171026          6.768912
 277         V                 3.202088          7.213297
 278         V                 3.202136          7.212979
 279         V                 3.268129          6.188405
 280         V                 3.268142          6.189102
 281         V                 3.313266          6.357695
 282         V                 3.389451          6.350109
 283         V                 3.389491          6.349329
 284         V                 3.430158          7.029935
 285         V                 3.479699          7.065314
 286         V                 3.479806          7.064629
 287         V                 3.657387          7.270439
 288         V                 3.723583          7.658774
 289         V                 3.811469          7.563958
 290         V                 3.811497          7.564025
 291         V                 4.109005          7.588946
 292         V                 4.109082          7.589195
 293         V                 4.560652          7.779645
 294         V                 4.634655          7.898041
 295         V                 4.634731          7.897828
 296         V                23.064808         60.102475
 297         V                23.454430         60.240292
 298         V                23.454617         60.240382
 299         V                23.735529         60.358575
 300         V                23.735628         60.358624
 301         V                23.770688         60.378771
 302         V                23.796269         60.366687
 303         V                23.844185         60.361251
 304         V                23.844214         60.361270
 305         V                23.860477         60.360186
 306         V                23.944931         60.388207
 307         V                23.945043         60.388269
 308         V                23.948544         60.365460
 Total kinetic energy from orbitals= 4.985004994531D+02
 1\1\GINC-HOGWARTS\SP\RB3LYP\6-311+G(d)\C13H9(1+)\ANUJA\04-May-2014\0\\
 # B3LYP/6-311+G* NMR=GIAO POP=FULL SCF(MAXCYCLE=512)\\Compund 12 from 
 Renana's XY Paper # Center 1\\1,1\C,0,2.22113,-1.0155,0.\C,0,2.81048,0
 .24453,0.\C,0,2.01252,1.38387,0.\H,0,2.47559,2.36548,0.\C,0,0.60095,1.
 28665,0.\C,0,0.00011,0.00002,0.\C,0,0.81396,-1.16362,0.\C,0,0.1922,-2.
 43459,0.\C,0,-1.19355,-2.55591,0.\C,0,-0.231,2.43112,0.\H,0,0.22416,3.
 41641,0.\C,0,-1.4148,-0.12302,0.\C,0,-1.61695,2.31141,0.\H,0,-2.23768,
 3.19922,0.\C,0,-2.20479,1.0507,0.\H,0,-3.28631,0.96048,0.\C,0,-1.99015
 ,-1.41563,0.\H,0,-3.07097,-1.51422,0.\H,0,3.88966,0.33845,0.\H,0,2.846
 85,-1.9023,0.\H,0,0.81065,-3.32647,0.\H,0,-1.65191,-3.53745,0.\Bq,0,2.
 22113,-1.0155,1.7\Bq,0,2.13019,-0.97392,1.7\Bq,0,2.03924,-0.93234,1.7\
 Bq,0,1.9483,-0.89076,1.7\Bq,0,1.85735,-0.84918,1.7\Bq,0,1.76641,-0.807
 6,1.7\Bq,0,1.67546,-0.76602,1.7\Bq,0,1.58452,-0.72444,1.7\Bq,0,1.49357
 ,-0.68286,1.7\Bq,0,1.40263,-0.64128,1.7\Bq,0,1.31168,-0.5997,1.7\Bq,0,
 1.22073,-0.55812,1.7\Bq,0,1.12979,-0.51654,1.7\Bq,0,1.03884,-0.47496,1
 .7\Bq,0,0.9479,-0.43338,1.7\Bq,0,0.85695,-0.3918,1.7\Bq,0,0.76601,-0.3
 5022,1.7\Bq,0,0.67506,-0.30864,1.7\Bq,0,0.58412,-0.26706,1.7\Bq,0,0.49
 317,-0.22548,1.7\Bq,0,0.40223,-0.1839,1.7\Bq,0,0.31128,-0.14232,1.7\Bq
 ,0,0.22033,-0.10074,1.7\Bq,0,0.12939,-0.05916,1.7\Bq,0,0.,0.,1.7\Bq,0,
 -0.09027,0.04302,1.7\Bq,0,-0.18055,0.08604,1.7\Bq,0,-0.27082,0.12906,1
 .7\Bq,0,-0.36109,0.17208,1.7\Bq,0,-0.45137,0.2151,1.7\Bq,0,-0.54164,0.
 25812,1.7\Bq,0,-0.63191,0.30114,1.7\Bq,0,-0.72219,0.34416,1.7\Bq,0,-0.
 81246,0.38718,1.7\Bq,0,-0.90273,0.4302,1.7\Bq,0,-0.99301,0.47322,1.7\B
 q,0,-1.08328,0.51624,1.7\Bq,0,-1.17355,0.55926,1.7\Bq,0,-1.26383,0.602
 28,1.7\Bq,0,-1.3541,0.6453,1.7\Bq,0,-1.44437,0.68832,1.7\Bq,0,-1.53465
 ,0.73134,1.7\Bq,0,-1.62492,0.77436,1.7\Bq,0,-1.71519,0.81738,1.7\Bq,0,
 -1.80547,0.8604,1.7\Bq,0,-1.89574,0.90342,1.7\Bq,0,-1.98601,0.94645,1.
 7\Bq,0,-2.07628,0.98947,1.7\\Version=EM64L-G09RevD.01\HF=-500.6820795\
 RMSD=8.167e-09\Dipole=0.0003622,-0.0001694,0.\Quadrupole=8.9434677,8.9
 374691,-17.8809368,0.0028807,0.,0.\PG=C01 [X(C13H9)]\\@


 LET US PLACE AT THE END OF EVERY CHAPTER.....THE
 TWO LETTERS USED BY THE ROMAN JUDGES WHEN THEY DID
 NOT UNDERSTAND A PLEADING.
 N. L. -NON LIQUET- IT IS NOT CLEAR.
                                              -- VOLTAIRE
 Job cpu time:       0 days  0 hours 20 minutes 23.2 seconds.
 File lengths (MBytes):  RWF=     57 Int=      0 D2E=      0 Chk=      6 Scr=      1
 Normal termination of Gaussian 09 at Sun May  4 19:20:06 2014.
