 Entering Gaussian System, Link 0=/usr/local/g09/g09
 Input=/home/anuja/input/phenalene-z-center1.in
 Output=/home/anuja/output/phenalene-z-center1.log
 Initial command:
 /usr/local/g09-D.01/g09/l1.exe /gtmp/Gau-5367.inp -scrdir=/gtmp/
 Entering Link 1 = /usr/local/g09-D.01/g09/l1.exe PID=      5369.
  
 Copyright (c) 1988,1990,1992,1993,1995,1998,2003,2009,2013,
            Gaussian, Inc.  All Rights Reserved.
  
 This is part of the Gaussian(R) 09 program.  It is based on
 the Gaussian(R) 03 system (copyright 2003, Gaussian, Inc.),
 the Gaussian(R) 98 system (copyright 1998, Gaussian, Inc.),
 the Gaussian(R) 94 system (copyright 1995, Gaussian, Inc.),
 the Gaussian 92(TM) system (copyright 1992, Gaussian, Inc.),
 the Gaussian 90(TM) system (copyright 1990, Gaussian, Inc.),
 the Gaussian 88(TM) system (copyright 1988, Gaussian, Inc.),
 the Gaussian 86(TM) system (copyright 1986, Carnegie Mellon
 University), and the Gaussian 82(TM) system (copyright 1983,
 Carnegie Mellon University). Gaussian is a federally registered
 trademark of Gaussian, Inc.
  
 This software contains proprietary and confidential information,
 including trade secrets, belonging to Gaussian, Inc.
  
 This software is provided under written license and may be
 used, copied, transmitted, or stored only in accord with that
 written license.
  
 The following legend is applicable only to US Government
 contracts under FAR:
  
                    RESTRICTED RIGHTS LEGEND
  
 Use, reproduction and disclosure by the US Government is
 subject to restrictions as set forth in subparagraphs (a)
 and (c) of the Commercial Computer Software - Restricted
 Rights clause in FAR 52.227-19.
  
 Gaussian, Inc.
 340 Quinnipiac St., Bldg. 40, Wallingford CT 06492
  
  
 ---------------------------------------------------------------
 Warning -- This program may not be used in any manner that
 competes with the business of Gaussian, Inc. or will provide
 assistance to any competitor of Gaussian, Inc.  The licensee
 of this program is prohibited from giving any competitor of
 Gaussian, Inc. access to this program.  By using this program,
 the user acknowledges that Gaussian, Inc. is engaged in the
 business of creating and licensing software in the field of
 computational chemistry and represents and warrants to the
 licensee that it is not a competitor of Gaussian, Inc. and that
 it will not use this program in any manner prohibited above.
 ---------------------------------------------------------------
  

 Cite this work as:
 Gaussian 09, Revision D.01,
 M. J. Frisch, G. W. Trucks, H. B. Schlegel, G. E. Scuseria, 
 M. A. Robb, J. R. Cheeseman, G. Scalmani, V. Barone, B. Mennucci, 
 G. A. Petersson, H. Nakatsuji, M. Caricato, X. Li, H. P. Hratchian, 
 A. F. Izmaylov, J. Bloino, G. Zheng, J. L. Sonnenberg, M. Hada, 
 M. Ehara, K. Toyota, R. Fukuda, J. Hasegawa, M. Ishida, T. Nakajima, 
 Y. Honda, O. Kitao, H. Nakai, T. Vreven, J. A. Montgomery, Jr., 
 J. E. Peralta, F. Ogliaro, M. Bearpark, J. J. Heyd, E. Brothers, 
 K. N. Kudin, V. N. Staroverov, T. Keith, R. Kobayashi, J. Normand, 
 K. Raghavachari, A. Rendell, J. C. Burant, S. S. Iyengar, J. Tomasi, 
 M. Cossi, N. Rega, J. M. Millam, M. Klene, J. E. Knox, J. B. Cross, 
 V. Bakken, C. Adamo, J. Jaramillo, R. Gomperts, R. E. Stratmann, 
 O. Yazyev, A. J. Austin, R. Cammi, C. Pomelli, J. W. Ochterski, 
 R. L. Martin, K. Morokuma, V. G. Zakrzewski, G. A. Voth, 
 P. Salvador, J. J. Dannenberg, S. Dapprich, A. D. Daniels, 
 O. Farkas, J. B. Foresman, J. V. Ortiz, J. Cioslowski, 
 and D. J. Fox, Gaussian, Inc., Wallingford CT, 2013.
 
 ******************************************
 Gaussian 09:  EM64L-G09RevD.01 24-Apr-2013
                 4-May-2014 
 ******************************************
 %NPROC=6
 Will use up to    6 processors via shared memory.
 %MEM=6024MB
 ----------------------------------------------------
 # B3LYP/6-311+G* NMR=GIAO POP=FULL SCF(MAXCYCLE=512)
 ----------------------------------------------------
 1/38=1/1;
 2/12=2,17=6,18=5,40=1/2;
 3/5=4,6=6,7=11,11=2,16=1,25=1,30=1,74=-5/1,2,8,3;
 4//1;
 5/5=2,7=512,38=5/2;
 8/6=1,10=90,11=11/1;
 10/13=100,45=16/2;
 6/7=3,28=1/1;
 99/9=1/99;
 --------------------------------------------
 Compund 12 from Renana's XY Paper # Center 1
 --------------------------------------------
 Symbolic Z-matrix:
 Charge =  1 Multiplicity = 1
 6                     0.81127  -1.13816   0. 
 6                     1.40062   0.12187   0. 
 6                     0.60266   1.26122   0. 
 1                     1.06573   2.24282   0. 
 6                    -0.80891   1.16399   0. 
 6                    -1.40975  -0.12264   0. 
 6                    -0.5959   -1.28627   0. 
 6                    -1.21766  -2.55725   0. 
 6                    -2.60341  -2.67857   0. 
 6                    -1.64086   2.30846   0. 
 1                    -1.1857    3.29375   0. 
 6                    -2.82465  -0.24568   0. 
 6                    -3.02681   2.18875   0. 
 1                    -3.64754   3.07656   0. 
 6                    -3.61465   0.92805   0. 
 1                    -4.69617   0.83782   0. 
 6                    -3.40001  -1.53829   0. 
 1                    -4.48083  -1.63688   0. 
 1                     2.4798    0.21579   0. 
 1                     1.43699  -2.02496   0. 
 1                    -0.59921  -3.44913   0. 
 1                    -3.06177  -3.66011   0. 
 bq                    0.        0.        0. 
 bq                    0.        0.        0.1 
 bq                    0.        0.        0.2 
 bq                    0.        0.        0.3 
 bq                    0.        0.        0.4 
 bq                    0.        0.        0.5 
 bq                    0.        0.        0.6 
 bq                    0.        0.        0.7 
 bq                    0.        0.        0.8 
 bq                    0.        0.        0.9 
 bq                    0.        0.        1. 
 bq                    0.        0.        1.1 
 bq                    0.        0.        1.2 
 bq                    0.        0.        1.3 
 bq                    0.        0.        1.4 
 bq                    0.        0.        1.5 
 bq                    0.        0.        1.6 
 bq                    0.        0.        1.7 
 bq                    0.        0.        1.8 
 bq                    0.        0.        1.9 
 bq                    0.        0.        2. 
 bq                    0.        0.        2.1 
 bq                    0.        0.        2.2 
 bq                    0.        0.        2.3 
 bq                    0.        0.        2.4 
 bq                    0.        0.        2.5 
 bq                    0.        0.        2.6 
 bq                    0.        0.        2.7 
 bq                    0.        0.        2.8 
 bq                    0.        0.        2.9 
 bq                    0.        0.        3. 
 bq                    0.        0.        3.1 
 bq                    0.        0.        3.2 
 bq                    0.        0.        3.3 
 bq                    0.        0.        3.4 
 bq                    0.        0.        3.5 
 bq                    0.        0.        3.6 
 bq                    0.        0.        3.7 
 bq                    0.        0.        3.8 
 bq                    0.        0.        3.9 
 
 Symmetry turned off:
 Cannot cope with ghost atoms or with translation vectors.
 Stoichiometry    C13H9(1+)
 Framework group  C1[X(C13H9)]
 NUMDOF-- NAT=    22 NAtoms=    62
 Deg. of freedom     0
 Full point group                 C1      NOp   1
                          Input orientation:                          
 ---------------------------------------------------------------------
 Center     Atomic      Atomic             Coordinates (Angstroms)
 Number     Number       Type             X           Y           Z
 ---------------------------------------------------------------------
      1          6           0        0.811270   -1.138160    0.000000
      2          6           0        1.400620    0.121870    0.000000
      3          6           0        0.602660    1.261220    0.000000
      4          1           0        1.065730    2.242820    0.000000
      5          6           0       -0.808910    1.163990    0.000000
      6          6           0       -1.409750   -0.122640    0.000000
      7          6           0       -0.595900   -1.286270    0.000000
      8          6           0       -1.217660   -2.557250    0.000000
      9          6           0       -2.603410   -2.678570    0.000000
     10          6           0       -1.640860    2.308460    0.000000
     11          1           0       -1.185700    3.293750    0.000000
     12          6           0       -2.824650   -0.245680    0.000000
     13          6           0       -3.026810    2.188750    0.000000
     14          1           0       -3.647540    3.076560    0.000000
     15          6           0       -3.614650    0.928050    0.000000
     16          1           0       -4.696170    0.837820    0.000000
     17          6           0       -3.400010   -1.538290    0.000000
     18          1           0       -4.480830   -1.636880    0.000000
     19          1           0        2.479800    0.215790    0.000000
     20          1           0        1.436990   -2.024960    0.000000
     21          1           0       -0.599210   -3.449130    0.000000
     22          1           0       -3.061770   -3.660110    0.000000
     23          0           0        0.000000    0.000000    0.000000
     24          0           0        0.000000    0.000000    0.100000
     25          0           0        0.000000    0.000000    0.200000
     26          0           0        0.000000    0.000000    0.300000
     27          0           0        0.000000    0.000000    0.400000
     28          0           0        0.000000    0.000000    0.500000
     29          0           0        0.000000    0.000000    0.600000
     30          0           0        0.000000    0.000000    0.700000
     31          0           0        0.000000    0.000000    0.800000
     32          0           0        0.000000    0.000000    0.900000
     33          0           0        0.000000    0.000000    1.000000
     34          0           0        0.000000    0.000000    1.100000
     35          0           0        0.000000    0.000000    1.200000
     36          0           0        0.000000    0.000000    1.300000
     37          0           0        0.000000    0.000000    1.400000
     38          0           0        0.000000    0.000000    1.500000
     39          0           0        0.000000    0.000000    1.600000
     40          0           0        0.000000    0.000000    1.700000
     41          0           0        0.000000    0.000000    1.800000
     42          0           0        0.000000    0.000000    1.900000
     43          0           0        0.000000    0.000000    2.000000
     44          0           0        0.000000    0.000000    2.100000
     45          0           0        0.000000    0.000000    2.200000
     46          0           0        0.000000    0.000000    2.300000
     47          0           0        0.000000    0.000000    2.400000
     48          0           0        0.000000    0.000000    2.500000
     49          0           0        0.000000    0.000000    2.600000
     50          0           0        0.000000    0.000000    2.700000
     51          0           0        0.000000    0.000000    2.800000
     52          0           0        0.000000    0.000000    2.900000
     53          0           0        0.000000    0.000000    3.000000
     54          0           0        0.000000    0.000000    3.100000
     55          0           0        0.000000    0.000000    3.200000
     56          0           0        0.000000    0.000000    3.300000
     57          0           0        0.000000    0.000000    3.400000
     58          0           0        0.000000    0.000000    3.500000
     59          0           0        0.000000    0.000000    3.600000
     60          0           0        0.000000    0.000000    3.700000
     61          0           0        0.000000    0.000000    3.800000
     62          0           0        0.000000    0.000000    3.900000
 ---------------------------------------------------------------------
 Rotational constants (GHZ):      1.1163676      1.1161145      0.5581205
 Standard basis: 6-311+G(d) (5D, 7F)
 Warning:  center  23 has no basis functions!
 Warning:  center  24 has no basis functions!
 Warning:  center  25 has no basis functions!
 Warning:  center  26 has no basis functions!
 Warning:  center  27 has no basis functions!
 Warning:  center  28 has no basis functions!
 Warning:  center  29 has no basis functions!
 Warning:  center  30 has no basis functions!
 Warning:  center  31 has no basis functions!
 Warning:  center  32 has no basis functions!
 Warning:  center  33 has no basis functions!
 Warning:  center  34 has no basis functions!
 Warning:  center  35 has no basis functions!
 Warning:  center  36 has no basis functions!
 Warning:  center  37 has no basis functions!
 Warning:  center  38 has no basis functions!
 Warning:  center  39 has no basis functions!
 Warning:  center  40 has no basis functions!
 Warning:  center  41 has no basis functions!
 Warning:  center  42 has no basis functions!
 Warning:  center  43 has no basis functions!
 Warning:  center  44 has no basis functions!
 Warning:  center  45 has no basis functions!
 Warning:  center  46 has no basis functions!
 Warning:  center  47 has no basis functions!
 Warning:  center  48 has no basis functions!
 Warning:  center  49 has no basis functions!
 Warning:  center  50 has no basis functions!
 Warning:  center  51 has no basis functions!
 Warning:  center  52 has no basis functions!
 Warning:  center  53 has no basis functions!
 Warning:  center  54 has no basis functions!
 Warning:  center  55 has no basis functions!
 Warning:  center  56 has no basis functions!
 Warning:  center  57 has no basis functions!
 Warning:  center  58 has no basis functions!
 Warning:  center  59 has no basis functions!
 Warning:  center  60 has no basis functions!
 Warning:  center  61 has no basis functions!
 Warning:  center  62 has no basis functions!
   313 basis functions,   513 primitive gaussians,   326 cartesian basis functions
    43 alpha electrons       43 beta electrons
       nuclear repulsion energy       698.4591327830 Hartrees.
 NAtoms=   62 NActive=   62 NUniq=   62 SFac= 1.00D+00 NAtFMM=   60 NAOKFM=T Big=T
 Integral buffers will be    131072 words long.
 Raffenetti 2 integral format.
 Two-electron integral symmetry is turned off.
 One-electron integrals computed using PRISM.
 NBasis=   313 RedAO= T EigKep=  1.32D-06  NBF=   313
 NBsUse=   308 1.00D-06 EigRej=  8.88D-07 NBFU=   308
 ExpMin= 4.38D-02 ExpMax= 4.56D+03 ExpMxC= 6.82D+02 IAcc=2 IRadAn=         4 AccDes= 0.00D+00
 Harris functional with IExCor=  402 and IRadAn=       4 diagonalized for initial guess.
 HarFok:  IExCor=  402 AccDes= 0.00D+00 IRadAn=         4 IDoV= 1 UseB2=F ITyADJ=14
 ICtDFT=  3500011 ScaDFX=  1.000000  1.000000  1.000000  1.000000
 FoFCou: FMM=F IPFlag=           0 FMFlag=      100000 FMFlg1=        2001
         NFxFlg=           0 DoJE=T BraDBF=F KetDBF=T FulRan=T
         wScrn=  0.000000 ICntrl=     500 IOpCl=  0 I1Cent=   200000004 NGrid=           0
         NMat0=    1 NMatS0=      1 NMatT0=    0 NMatD0=    1 NMtDS0=    0 NMtDT0=    0
 Symmetry not used in FoFCou.
 Requested convergence on RMS density matrix=1.00D-08 within 512 cycles.
 Requested convergence on MAX density matrix=1.00D-06.
 Requested convergence on             energy=1.00D-06.
 No special actions if energy rises.
 SCF Done:  E(RB3LYP) =  -500.682079541     A.U. after   12 cycles
            NFock= 12  Conv=0.81D-08     -V/T= 2.0044
 DoSCS=F DFT=T ScalE2(SS,OS)=  1.000000  1.000000
 Range of M.O.s used for correlation:     1   308
 NBasis=   313 NAE=    43 NBE=    43 NFC=     0 NFV=     0
 NROrb=    308 NOA=    43 NOB=    43 NVA=   265 NVB=   265

 **** Warning!!: The largest alpha MO coefficient is  0.40847448D+03

          Differentiating once with respect to magnetic field using GIAOs.
          Electric field/nuclear overlap derivatives assumed to be zero.
 FoFCou: FMM=F IPFlag=           0 FMFlag=      100000 FMFlg1=        2001
         NFxFlg=           0 DoJE=F BraDBF=F KetDBF=T FulRan=T
         wScrn=  0.000000 ICntrl=    6100 IOpCl=  0 I1Cent=           7 NGrid=          62
         NMat0=    1 NMatS0=      1 NMatT0=    0 NMatD0=    1 NMtDS0=    0 NMtDT0=    0
 Symmetry not used in FoFCou.
 FoFJK:  IHMeth= 1 ICntrl=    6127 DoSepK=F KAlg= 0 I1Cent=   0 FoldK=F
 IRaf=         1 NMat=   1 IRICut=       1 DoRegI=T DoRafI=F ISym2E= 0.
          There are     3 degrees of freedom in the 1st order CPHF.  IDoFFX=0 NUNeed=     3.
      3 vectors produced by pass  0 Test12= 3.80D-13 3.33D-08 XBig12= 9.15D+02 1.62D+01.
 AX will form     3 AO Fock derivatives at one time.
      3 vectors produced by pass  1 Test12= 3.80D-13 3.33D-08 XBig12= 1.87D+00 9.25D-01.
      3 vectors produced by pass  2 Test12= 3.80D-13 3.33D-08 XBig12= 1.95D-02 8.18D-02.
      3 vectors produced by pass  3 Test12= 3.80D-13 3.33D-08 XBig12= 3.78D-05 1.77D-03.
      3 vectors produced by pass  4 Test12= 3.80D-13 3.33D-08 XBig12= 2.89D-07 3.16D-04.
      3 vectors produced by pass  5 Test12= 3.80D-13 3.33D-08 XBig12= 1.31D-09 1.48D-05.
      3 vectors produced by pass  6 Test12= 3.80D-13 3.33D-08 XBig12= 4.35D-12 6.44D-07.
 InvSVY:  IOpt=1 It=  1 EMax= 7.11D-15
 Solved reduced A of dimension    21 with     3 vectors.
 Calculating GIAO nuclear magnetic shielding tensors.
 SCF GIAO Magnetic shielding tensor (ppm):
      1  C    Isotropic =    23.9396   Anisotropy =   202.7630
   XX=   -42.3269   YX=    34.5828   ZX=     0.0000
   XY=    40.9696   YY=   -44.9693   ZY=     0.0000
   XZ=     0.0000   YZ=     0.0000   ZZ=   159.1149
   Eigenvalues:   -81.4474    -5.8488   159.1149
      2  C    Isotropic =    46.4525   Anisotropy =   188.6914
   XX=   -59.3169   YX=    -7.5078   ZX=     0.0000
   XY=    -7.5047   YY=    26.4276   ZY=     0.0000
   XZ=     0.0000   YZ=     0.0000   ZZ=   172.2468
   Eigenvalues:   -59.9690    27.0797   172.2468
      3  C    Isotropic =    23.9290   Anisotropy =   203.0097
   XX=   -29.6186   YX=   -32.1192   ZX=     0.0000
   XY=   -38.3095   YY=   -57.8633   ZY=     0.0000
   XZ=     0.0000   YZ=     0.0000   ZZ=   159.2688
   Eigenvalues:   -81.6816    -5.8003   159.2688
      4  H    Isotropic =    22.9426   Anisotropy =     7.4230
   XX=    26.9211   YX=    -2.1290   ZX=     0.0000
   XY=    -2.1495   YY=    23.1744   ZY=     0.0000
   XZ=     0.0000   YZ=     0.0000   ZZ=    18.7324
   Eigenvalues:    18.7324    22.2042    27.8913
      5  C    Isotropic =    46.9144   Anisotropy =   210.0769
   XX=   -22.5176   YX=     0.1901   ZX=     0.0000
   XY=    -0.3455   YY=   -23.7050   ZY=     0.0000
   XZ=     0.0000   YZ=     0.0000   ZZ=   186.9656
   Eigenvalues:   -23.7100   -22.5125   186.9656
      6  C    Isotropic =    54.6824   Anisotropy =   210.6355
   XX=   -15.5690   YX=     0.0609   ZX=     0.0000
   XY=     0.0296   YY=   -15.4899   ZY=     0.0000
   XZ=     0.0000   YZ=     0.0000   ZZ=   195.1061
   Eigenvalues:   -15.5895   -15.4694   195.1061
      7  C    Isotropic =    47.7662   Anisotropy =   211.8551
   XX=   -22.4643   YX=    -0.2091   ZX=     0.0000
   XY=     0.2892   YY=   -23.2401   ZY=     0.0000
   XZ=     0.0000   YZ=     0.0000   ZZ=   189.0029
   Eigenvalues:   -23.2421   -22.4623   189.0029
      8  C    Isotropic =    24.0317   Anisotropy =   202.5089
   XX=   -20.0995   YX=    32.8397   ZX=     0.0000
   XY=    26.6502   YY=   -66.8430   ZY=     0.0000
   XZ=     0.0000   YZ=     0.0000   ZZ=   159.0376
   Eigenvalues:   -81.2999    -5.6426   159.0376
      9  C    Isotropic =    46.3147   Anisotropy =   187.9417
   XX=    11.7110   YX=   -33.5030   ZX=     0.0000
   XY=   -33.5239   YY=   -44.3761   ZY=     0.0000
   XZ=     0.0000   YZ=     0.0000   ZZ=   171.6092
   Eigenvalues:   -60.0314    27.3664   171.6092
     10  C    Isotropic =    23.9535   Anisotropy =   202.7732
   XX=   -11.4025   YX=   -23.0355   ZX=     0.0000
   XY=   -17.1123   YY=   -75.8726   ZY=     0.0000
   XZ=     0.0000   YZ=     0.0000   ZZ=   159.1356
   Eigenvalues:   -81.6121    -5.6631   159.1356
     11  H    Isotropic =    22.9253   Anisotropy =     7.3760
   XX=    26.7866   YX=    -2.1932   ZX=     0.0000
   XY=    -2.2135   YY=    23.2455   ZY=     0.0000
   XZ=     0.0000   YZ=     0.0000   ZZ=    18.7439
   Eigenvalues:    18.7439    22.1895    27.8427
     12  C    Isotropic =    48.2461   Anisotropy =   210.1077
   XX=   -20.5792   YX=     0.1829   ZX=     0.0000
   XY=     0.0104   YY=   -23.0004   ZY=     0.0000
   XZ=     0.0000   YZ=     0.0000   ZZ=   188.3179
   Eigenvalues:   -23.0042   -20.5754   188.3179
     13  C    Isotropic =    46.6901   Anisotropy =   189.4446
   XX=    -1.5636   YX=    41.1924   ZX=     0.0000
   XY=    41.0800   YY=   -31.3526   ZY=     0.0000
   XZ=     0.0000   YZ=     0.0000   ZZ=   172.9865
   Eigenvalues:   -60.2078    27.2916   172.9865
     14  H    Isotropic =    23.6499   Anisotropy =     5.6381
   XX=    26.3516   YX=     1.4561   ZX=     0.0000
   XY=     1.5559   YY=    25.2628   ZY=     0.0000
   XZ=     0.0000   YZ=     0.0000   ZZ=    19.3352
   Eigenvalues:    19.3352    24.2058    27.4086
     15  C    Isotropic =    24.2368   Anisotropy =   201.9660
   XX=   -79.9676   YX=     8.7875   ZX=     0.0000
   XY=     1.7306   YY=    -6.2029   ZY=     0.0000
   XZ=     0.0000   YZ=     0.0000   ZZ=   158.8808
   Eigenvalues:   -80.3406    -5.8298   158.8808
     16  H    Isotropic =    22.9492   Anisotropy =     7.5261
   XX=    22.3507   YX=    -0.5615   ZX=     0.0000
   XY=    -0.6243   YY=    27.9040   ZY=     0.0000
   XZ=     0.0000   YZ=     0.0000   ZZ=    18.5930
   Eigenvalues:    18.5930    22.2881    27.9666
     17  C    Isotropic =    24.2500   Anisotropy =   202.3917
   XX=   -76.2119   YX=   -21.0554   ZX=     0.0000
   XY=   -14.2317   YY=   -10.2159   ZY=     0.0000
   XZ=     0.0000   YZ=     0.0000   ZZ=   159.1778
   Eigenvalues:   -80.6327    -5.7951   159.1778
     18  H    Isotropic =    23.0434   Anisotropy =     7.3530
   XX=    22.3045   YX=    -0.4294   ZX=     0.0000
   XY=    -0.3806   YY=    27.9163   ZY=     0.0000
   XZ=     0.0000   YZ=     0.0000   ZZ=    18.9093
   Eigenvalues:    18.9093    22.2755    27.9454
     19  H    Isotropic =    23.6390   Anisotropy =     5.6790
   XX=    24.2212   YX=    -0.2709   ZX=     0.0000
   XY=    -0.2828   YY=    27.4011   ZY=     0.0000
   XZ=     0.0000   YZ=     0.0000   ZZ=    19.2948
   Eigenvalues:    19.2948    24.1972    27.4250
     20  H    Isotropic =    22.9847   Anisotropy =     7.3895
   XX=    26.0974   YX=     2.6392   ZX=     0.0000
   XY=     2.6765   YY=    24.0160   ZY=     0.0000
   XZ=     0.0000   YZ=     0.0000   ZZ=    18.8407
   Eigenvalues:    18.8407    22.2023    27.9110
     21  H    Isotropic =    23.0204   Anisotropy =     7.2680
   XX=    25.9362   YX=     2.6907   ZX=     0.0000
   XY=     2.6886   YY=    24.1165   ZY=     0.0000
   XZ=     0.0000   YZ=     0.0000   ZZ=    19.0085
   Eigenvalues:    19.0085    22.1870    27.8658
     22  H    Isotropic =    23.6303   Anisotropy =     5.6655
   XX=    26.8326   YX=    -1.1981   ZX=     0.0000
   XY=    -1.2556   YY=    24.7883   ZY=     0.0000
   XZ=     0.0000   YZ=     0.0000   ZZ=    19.2699
   Eigenvalues:    19.2699    24.2136    27.4073
     23  Bq   Isotropic =     3.5843   Anisotropy =     5.5946
   XX=     7.2940   YX=     0.2242   ZX=     0.0000
   XY=     0.2346   YY=     4.6796   ZY=     0.0000
   XZ=     0.0000   YZ=     0.0000   ZZ=    -1.2209
   Eigenvalues:    -1.2209     4.6596     7.3140
     24  Bq   Isotropic =     3.6912   Anisotropy =     5.4077
   XX=     7.2632   YX=     0.2264   ZX=     0.3157
   XY=     0.2375   YY=     4.6274   ZY=     0.0287
   XZ=     0.3281   YZ=     0.0459   ZZ=    -0.8168
   Eigenvalues:    -0.8298     4.6071     7.2964
     25  Bq   Isotropic =     3.9966   Anisotropy =     4.8812
   XX=     7.1646   YX=     0.2324   ZX=     0.6020
   XY=     0.2453   YY=     4.4729   ZY=     0.0547
   XZ=     0.7296   YZ=     0.0976   ZZ=     0.3523
   Eigenvalues:     0.2872     4.4519     7.2507
     26  Bq   Isotropic =     4.4574   Anisotropy =     4.1508
   XX=     6.9837   YX=     0.2402   ZX=     0.8357
   XY=     0.2558   YY=     4.2233   ZY=     0.0758
   XZ=     1.2555   YZ=     0.1588   ZZ=     2.1650
   Eigenvalues:     1.9461     4.2015     7.2245
     27  Bq   Isotropic =     5.0122   Anisotropy =     3.6527
   XX=     6.7047   YX=     0.2471   ZX=     1.0039
   XY=     0.2659   YY=     3.8909   ZY=     0.0906
   XZ=     1.9204   YZ=     0.2302   ZZ=     4.4411
   Eigenvalues:     3.7174     3.8719     7.4474
     28  Bq   Isotropic =     5.5940   Anisotropy =     4.5034
   XX=     6.3191   YX=     0.2506   ZX=     1.1050
   XY=     0.2727   YY=     3.4926   ZY=     0.0991
   XZ=     2.7015   YZ=     0.3092   ZZ=     6.9703
   Eigenvalues:     3.4682     4.7176     8.5962
     29  Bq   Isotropic =     6.1406   Anisotropy =     6.8292
   XX=     5.8308   YX=     0.2492   ZX=     1.1463
   XY=     0.2742   YY=     3.0490   ZY=     0.1017
   XZ=     3.5487   YZ=     0.3912   ZZ=     9.5419
   Eigenvalues:     3.0244     4.7039    10.6934
     30  Bq   Isotropic =     6.6033   Anisotropy =     9.5637
   XX=     5.2567   YX=     0.2419   ZX=     1.1405
   XY=     0.2695   YY=     2.5817   ZY=     0.0996
   XZ=     4.4006   YZ=     0.4705   ZZ=    11.9715
   Eigenvalues:     2.5574     4.2734    12.9791
     31  Bq   Isotropic =     6.9504   Anisotropy =    12.1928
   XX=     4.6226   YX=     0.2292   ZX=     1.1020
   XY=     0.2587   YY=     2.1107   ZY=     0.0942
   XZ=     5.1990   YZ=     0.5424   ZZ=    14.1179
   Eigenvalues:     2.0872     3.6850    15.0790
     32  Bq   Isotropic =     7.1676   Anisotropy =    14.5053
   XX=     3.9585   YX=     0.2120   ZX=     1.0441
   XY=     0.2428   YY=     1.6530   ZY=     0.0868
   XZ=     5.8989   YZ=     0.6031   ZZ=    15.8912
   Eigenvalues:     1.6308     3.0342    16.8378
     33  Bq   Isotropic =     7.2553   Anisotropy =    16.4058
   XX=     3.2935   YX=     0.1917   ZX=     0.9773
   XY=     0.2232   YY=     1.2213   ZY=     0.0785
   XZ=     6.4724   YZ=     0.6508   ZZ=    17.2511
   Eigenvalues:     1.2008     2.3726    18.1925
     34  Bq   Isotropic =     7.2248   Anisotropy =    17.8649
   XX=     2.6520   YX=     0.1696   ZX=     0.9094
   XY=     0.2013   YY=     0.8242   ZY=     0.0702
   XZ=     6.9080   YZ=     0.6850   ZZ=    18.1981
   Eigenvalues:     0.8056     1.7341    19.1347
     35  Bq   Isotropic =     7.0942   Anisotropy =    18.8953
   XX=     2.0528   YX=     0.1472   ZX=     0.8453
   XY=     0.1785   YY=     0.4669   ZY=     0.0625
   XZ=     7.2071   YZ=     0.7064   ZZ=    18.7627
   Eigenvalues:     0.4503     1.1412    19.6910
     36  Bq   Isotropic =     6.8846   Anisotropy =    19.5360
   XX=     1.5085   YX=     0.1254   ZX=     0.7875
   XY=     0.1560   YY=     0.1519   ZY=     0.0557
   XZ=     7.3798   YZ=     0.7164   ZZ=    18.9935
   Eigenvalues:     0.1373     0.6080    19.9086
     37  Bq   Isotropic =     6.6176   Anisotropy =    19.8394
   XX=     1.0263   YX=     0.1050   ZX=     0.7374
   XY=     0.1345   YY=    -0.1203   ZY=     0.0499
   XZ=     7.4412   YZ=     0.7165   ZZ=    18.9468
   Eigenvalues:    -0.1330     0.1420    19.8439
     38  Bq   Isotropic =     6.3127   Anisotropy =    19.8622
   XX=     0.6091   YX=     0.0864   ZX=     0.6950
   XY=     0.1146   YY=    -0.3507   ZY=     0.0453
   XZ=     7.4082   YZ=     0.7086   ZZ=    18.6797
   Eigenvalues:    -0.3620    -0.2541    19.5542
     39  Bq   Isotropic =     5.9866   Anisotropy =    19.6596
   XX=     0.2563   YX=     0.0701   ZX=     0.6599
   XY=     0.0966   YY=    -0.5414   ZY=     0.0418
   XZ=     7.2982   YZ=     0.6943   ZZ=    18.2449
   Eigenvalues:    -0.5854    -0.5478    19.0930
     40  Bq   Isotropic =     5.6528   Anisotropy =    19.2817
   XX=    -0.0351   YX=     0.0560   ZX=     0.6312
   XY=     0.0807   YY=    -0.6950   ZY=     0.0392
   XZ=     7.1273   YZ=     0.6750   ZZ=    17.6884
   Eigenvalues:    -0.8473    -0.7016    18.5072
     41  Bq   Isotropic =     5.3212   Anisotropy =    18.7720
   XX=    -0.2699   YX=     0.0443   ZX=     0.6077
   XY=     0.0669   YY=    -0.8151   ZY=     0.0374
   XZ=     6.9101   YZ=     0.6521   ZZ=    17.0487
   Eigenvalues:    -1.0516    -0.8206    17.8359
     42  Bq   Isotropic =     4.9991   Anisotropy =    18.1674
   XX=    -0.4538   YX=     0.0346   ZX=     0.5884
   XY=     0.0550   YY=    -0.9055   ZY=     0.0363
   XZ=     6.6593   YZ=     0.6267   ZZ=    16.3566
   Eigenvalues:    -1.2036    -0.9098    17.1107
     43  Bq   Isotropic =     4.6910   Anisotropy =    17.4984
   XX=    -0.5933   YX=     0.0269   ZX=     0.5723
   XY=     0.0450   YY=    -0.9700   ZY=     0.0357
   XZ=     6.3858   YZ=     0.5996   ZZ=    15.6364
   Eigenvalues:    -1.3101    -0.9734    16.3566
     44  Bq   Isotropic =     4.3996   Anisotropy =    16.7895
   XX=    -0.6951   YX=     0.0210   ZX=     0.5583
   XY=     0.0366   YY=    -1.0127   ZY=     0.0354
   XZ=     6.0985   YZ=     0.5717   ZZ=    14.9067
   Eigenvalues:    -1.3784    -1.0153    15.5926
     45  Bq   Isotropic =     4.1262   Anisotropy =    16.0601
   XX=    -0.7654   YX=     0.0165   ZX=     0.5456
   XY=     0.0297   YY=    -1.0372   ZY=     0.0353
   XZ=     5.8047   YZ=     0.5435   ZZ=    14.1812
   Eigenvalues:    -1.4153    -1.0391    14.8329
     46  Bq   Isotropic =     3.8708   Anisotropy =    15.3257
   XX=    -0.8103   YX=     0.0132   ZX=     0.5337
   XY=     0.0240   YY=    -1.0471   ZY=     0.0354
   XZ=     5.5102   YZ=     0.5154   ZZ=    13.4698
   Eigenvalues:    -1.4271    -1.0485    14.0879
     47  Bq   Isotropic =     3.6331   Anisotropy =    14.5978
   XX=    -0.8352   YX=     0.0109   ZX=     0.5219
   XY=     0.0194   YY=    -1.0453   ZY=     0.0354
   XZ=     5.2194   YZ=     0.4879   ZZ=    12.7798
   Eigenvalues:    -1.4194    -1.0463    13.3650
     48  Bq   Isotropic =     3.4122   Anisotropy =    13.8850
   XX=    -0.8445   YX=     0.0093   ZX=     0.5101
   XY=     0.0157   YY=    -1.0346   ZY=     0.0354
   XZ=     4.9356   YZ=     0.4611   ZZ=    12.1157
   Eigenvalues:    -1.3970    -1.0352    12.6689
     49  Bq   Isotropic =     3.2071   Anisotropy =    13.1936
   XX=    -0.8421   YX=     0.0084   ZX=     0.4980
   XY=     0.0127   YY=    -1.0170   ZY=     0.0353
   XZ=     4.6611   YZ=     0.4353   ZZ=    11.4805
   Eigenvalues:    -1.3640    -1.0174    12.0029
     50  Bq   Isotropic =     3.0168   Anisotropy =    12.5277
   XX=    -0.8312   YX=     0.0078   ZX=     0.4855
   XY=     0.0104   YY=    -0.9944   ZY=     0.0351
   XZ=     4.3974   YZ=     0.4106   ZZ=    10.8759
   Eigenvalues:    -1.3236    -0.9946    11.3686
     51  Bq   Isotropic =     2.8400   Anisotropy =    11.8901
   XX=    -0.8142   YX=     0.0075   ZX=     0.4725
   XY=     0.0085   YY=    -0.9683   ZY=     0.0348
   XZ=     4.1455   YZ=     0.3870   ZZ=    10.3025
   Eigenvalues:    -1.2784    -0.9684    10.7667
     52  Bq   Isotropic =     2.6758   Anisotropy =    11.2822
   XX=    -0.7931   YX=     0.0074   ZX=     0.4592
   XY=     0.0070   YY=    -0.9398   ZY=     0.0344
   XZ=     3.9059   YZ=     0.3647   ZZ=     9.7602
   Eigenvalues:    -1.2302    -0.9397    10.1973
     53  Bq   Isotropic =     2.5231   Anisotropy =    10.7047
   XX=    -0.7693   YX=     0.0074   ZX=     0.4455
   XY=     0.0058   YY=    -0.9097   ZY=     0.0339
   XZ=     3.6788   YZ=     0.3435   ZZ=     9.2484
   Eigenvalues:    -1.1806    -0.9096     9.6596
     54  Bq   Isotropic =     2.3811   Anisotropy =    10.1573
   XX=    -0.7439   YX=     0.0074   ZX=     0.4316
   XY=     0.0049   YY=    -0.8788   ZY=     0.0333
   XZ=     3.4641   YZ=     0.3235   ZZ=     8.7661
   Eigenvalues:    -1.1306    -0.8786     9.1527
     55  Bq   Isotropic =     2.2490   Anisotropy =     9.6396
   XX=    -0.7177   YX=     0.0074   ZX=     0.4175
   XY=     0.0042   YY=    -0.8475   ZY=     0.0326
   XZ=     3.2616   YZ=     0.3046   ZZ=     8.3121
   Eigenvalues:    -1.0811    -0.8473     8.6753
     56  Bq   Isotropic =     2.1258   Anisotropy =     9.1506
   XX=    -0.6913   YX=     0.0075   ZX=     0.4034
   XY=     0.0036   YY=    -0.8163   ZY=     0.0318
   XZ=     3.0708   YZ=     0.2869   ZZ=     7.8850
   Eigenvalues:    -1.0327    -0.8161     8.2262
     57  Bq   Isotropic =     2.0110   Anisotropy =     8.6892
   XX=    -0.6650   YX=     0.0075   ZX=     0.3892
   XY=     0.0032   YY=    -0.7854   ZY=     0.0310
   XZ=     2.8912   YZ=     0.2702   ZZ=     7.4834
   Eigenvalues:    -0.9856    -0.7852     7.8038
     58  Bq   Isotropic =     1.9038   Anisotropy =     8.2541
   XX=    -0.6393   YX=     0.0075   ZX=     0.3752
   XY=     0.0029   YY=    -0.7551   ZY=     0.0301
   XZ=     2.7225   YZ=     0.2545   ZZ=     7.1059
   Eigenvalues:    -0.9401    -0.7549     7.4066
     59  Bq   Isotropic =     1.8038   Anisotropy =     7.8440
   XX=    -0.6142   YX=     0.0075   ZX=     0.3613
   XY=     0.0026   YY=    -0.7255   ZY=     0.0292
   XZ=     2.5640   YZ=     0.2398   ZZ=     6.7510
   Eigenvalues:    -0.8965    -0.7254     7.0331
     60  Bq   Isotropic =     1.7102   Anisotropy =     7.4576
   XX=    -0.5898   YX=     0.0074   ZX=     0.3476
   XY=     0.0024   YY=    -0.6968   ZY=     0.0282
   XZ=     2.4152   YZ=     0.2260   ZZ=     6.4173
   Eigenvalues:    -0.8547    -0.6967     6.6820
     61  Bq   Isotropic =     1.6227   Anisotropy =     7.0935
   XX=    -0.5664   YX=     0.0073   ZX=     0.3342
   XY=     0.0022   YY=    -0.6690   ZY=     0.0273
   XZ=     2.2757   YZ=     0.2130   ZZ=     6.1035
   Eigenvalues:    -0.8148    -0.6689     6.3517
     62  Bq   Isotropic =     1.5407   Anisotropy =     6.7505
   XX=    -0.5438   YX=     0.0072   ZX=     0.3211
   XY=     0.0021   YY=    -0.6422   ZY=     0.0263
   XZ=     2.1447   YZ=     0.2008   ZZ=     5.8082
   Eigenvalues:    -0.7768    -0.6421     6.0410
 End of Minotr F.D. properties file   721 does not exist.
 End of Minotr F.D. properties file   722 does not exist.
 End of Minotr F.D. properties file   788 does not exist.

 **********************************************************************

            Population analysis using the SCF density.

 **********************************************************************

 Alpha  occ. eigenvalues --  -10.36753 -10.36752 -10.36752 -10.36752 -10.36750
 Alpha  occ. eigenvalues --  -10.36750 -10.35970 -10.35969 -10.35968 -10.35410
 Alpha  occ. eigenvalues --  -10.34616 -10.34616 -10.34615  -1.06827  -1.00830
 Alpha  occ. eigenvalues --   -1.00828  -0.93015  -0.93014  -0.91909  -0.84674
 Alpha  occ. eigenvalues --   -0.80108  -0.78852  -0.78852  -0.69305  -0.69303
 Alpha  occ. eigenvalues --   -0.68306  -0.68304  -0.64723  -0.60715  -0.60713
 Alpha  occ. eigenvalues --   -0.60542  -0.58167  -0.57786  -0.56199  -0.56195
 Alpha  occ. eigenvalues --   -0.55172  -0.51243  -0.51241  -0.50615  -0.50613
 Alpha  occ. eigenvalues --   -0.42725  -0.42725  -0.42371
 Alpha virt. eigenvalues --   -0.29162  -0.18780  -0.18112  -0.18112  -0.11920
 Alpha virt. eigenvalues --   -0.10204  -0.10202  -0.09206  -0.08280  -0.08280
 Alpha virt. eigenvalues --   -0.08231  -0.08229  -0.07284  -0.05917  -0.05695
 Alpha virt. eigenvalues --   -0.04208  -0.04198  -0.04049  -0.04040  -0.02946
 Alpha virt. eigenvalues --   -0.02945  -0.00716   0.00088   0.00089   0.01310
 Alpha virt. eigenvalues --    0.01311   0.01745   0.01769   0.02253   0.02258
 Alpha virt. eigenvalues --    0.03469   0.03815   0.04331   0.05197   0.05198
 Alpha virt. eigenvalues --    0.06419   0.06444   0.06592   0.06607   0.06608
 Alpha virt. eigenvalues --    0.07050   0.07520   0.08551   0.08555   0.09388
 Alpha virt. eigenvalues --    0.09417   0.10043   0.10055   0.11611   0.11613
 Alpha virt. eigenvalues --    0.11651   0.12261   0.12303   0.13069   0.13876
 Alpha virt. eigenvalues --    0.13881   0.14678   0.15143   0.15144   0.16203
 Alpha virt. eigenvalues --    0.16216   0.17629   0.17933   0.17948   0.18481
 Alpha virt. eigenvalues --    0.19141   0.19157   0.21744   0.22200   0.22208
 Alpha virt. eigenvalues --    0.25771   0.29612   0.30106   0.31849   0.31871
 Alpha virt. eigenvalues --    0.31873   0.34203   0.34205   0.37419   0.37520
 Alpha virt. eigenvalues --    0.39732   0.39735   0.40262   0.40265   0.42202
 Alpha virt. eigenvalues --    0.42210   0.42377   0.43067   0.43088   0.43217
 Alpha virt. eigenvalues --    0.43493   0.43500   0.45388   0.48286   0.48688
 Alpha virt. eigenvalues --    0.49259   0.49277   0.49328   0.49474   0.49476
 Alpha virt. eigenvalues --    0.54889   0.55612   0.55615   0.55882   0.56603
 Alpha virt. eigenvalues --    0.56604   0.58289   0.58290   0.60177   0.60179
 Alpha virt. eigenvalues --    0.62714   0.62789   0.67874   0.67875   0.68325
 Alpha virt. eigenvalues --    0.68819   0.69494   0.69495   0.72696   0.73325
 Alpha virt. eigenvalues --    0.73326   0.77406   0.77416   0.77654   0.78220
 Alpha virt. eigenvalues --    0.78227   0.79164   0.79165   0.80541   0.82799
 Alpha virt. eigenvalues --    0.82805   0.86789   0.87199   0.92704   0.92705
 Alpha virt. eigenvalues --    0.94202   0.94210   0.95843   0.97445   1.01598
 Alpha virt. eigenvalues --    1.01604   1.01668   1.02690   1.03390   1.03394
 Alpha virt. eigenvalues --    1.06156   1.06160   1.20069   1.22530   1.24588
 Alpha virt. eigenvalues --    1.24592   1.32041   1.32043   1.32967   1.33633
 Alpha virt. eigenvalues --    1.33636   1.33925   1.37201   1.40974   1.40979
 Alpha virt. eigenvalues --    1.42279   1.42289   1.52897   1.52908   1.55777
 Alpha virt. eigenvalues --    1.57974   1.61857   1.67528   1.67532   1.67568
 Alpha virt. eigenvalues --    1.67569   1.69586   1.70554   1.70558   1.71359
 Alpha virt. eigenvalues --    1.73961   1.73968   1.74875   1.81432   1.82073
 Alpha virt. eigenvalues --    1.82090   1.85459   1.85465   1.86602   1.88517
 Alpha virt. eigenvalues --    1.88524   1.96355   1.98421   1.98422   2.01354
 Alpha virt. eigenvalues --    2.09089   2.15626   2.15631   2.20620   2.20626
 Alpha virt. eigenvalues --    2.23407   2.23410   2.24966   2.25226   2.26965
 Alpha virt. eigenvalues --    2.26978   2.31252   2.31260   2.33487   2.45530
 Alpha virt. eigenvalues --    2.50211   2.50212   2.51840   2.55762   2.60105
 Alpha virt. eigenvalues --    2.60117   2.60287   2.60288   2.65677   2.67456
 Alpha virt. eigenvalues --    2.67470   2.68818   2.72737   2.74312   2.74313
 Alpha virt. eigenvalues --    2.88187   2.88189   2.93220   3.01836   3.01845
 Alpha virt. eigenvalues --    3.08668   3.09141   3.11081   3.11084   3.12568
 Alpha virt. eigenvalues --    3.15281   3.17102   3.17103   3.20209   3.20213
 Alpha virt. eigenvalues --    3.26813   3.26815   3.31326   3.38945   3.38949
 Alpha virt. eigenvalues --    3.43016   3.47970   3.47981   3.65739   3.72359
 Alpha virt. eigenvalues --    3.81147   3.81149   4.10900   4.10908   4.56065
 Alpha virt. eigenvalues --    4.63466   4.63473  23.06481  23.45443  23.45461
 Alpha virt. eigenvalues --   23.73554  23.73562  23.77068  23.79626  23.84418
 Alpha virt. eigenvalues --   23.84421  23.86049  23.94493  23.94503  23.94854
     Molecular Orbital Coefficients:
                           1         2         3         4         5
                           O         O         O         O         O
     Eigenvalues --   -10.36753 -10.36752 -10.36752 -10.36752 -10.36750
   1 1   C  1S          0.51411   0.21340   0.05505  -0.03220   0.04705
   2        2S          0.42318   0.17574   0.04525  -0.02645   0.03879
   3        2PX         0.00004   0.00014   0.00002  -0.00009  -0.00004
   4        2PY        -0.00037   0.00000  -0.00003  -0.00001  -0.00004
   5        2PZ         0.00000   0.00000   0.00000   0.00000   0.00000
   6        3S          0.01762   0.00715   0.00225  -0.00141   0.00123
   7        3PX        -0.00083  -0.00106  -0.00023   0.00064   0.00024
   8        3PY         0.00267  -0.00011   0.00026   0.00006   0.00023
   9        3PZ         0.00000   0.00000   0.00000   0.00000   0.00000
  10        4S         -0.02002  -0.02085  -0.00446   0.00258   0.00494
  11        4PX         0.00421   0.00638   0.00044  -0.00080  -0.00275
  12        4PY        -0.00541  -0.00736  -0.00025  -0.00026   0.00096
  13        4PZ         0.00000   0.00000   0.00000   0.00000   0.00000
  14        5S         -0.06707   0.03246  -0.16267   0.05338   0.00943
  15        5PX         0.02037  -0.00707   0.03873  -0.01673   0.00320
  16        5PY         0.00333  -0.00054   0.00259  -0.01038   0.00392
  17        5PZ         0.00000   0.00000   0.00000   0.00000   0.00000
  18        6D 0       -0.00118  -0.00037  -0.00014   0.00008  -0.00010
  19        6D+1        0.00000   0.00000   0.00000   0.00000   0.00000
  20        6D-1        0.00000   0.00000   0.00000   0.00000   0.00000
  21        6D+2       -0.00002   0.00064   0.00012  -0.00037  -0.00016
  22        6D-2        0.00124   0.00011   0.00028  -0.00014   0.00004
  23 2   C  1S          0.00418   0.00890  -0.00194  -0.00096   0.00136
  24        2S          0.00358   0.00764  -0.00166  -0.00077   0.00118
  25        2PX        -0.00008  -0.00038   0.00010   0.00000  -0.00007
  26        2PY        -0.00098   0.00036  -0.00026  -0.00001   0.00000
  27        2PZ         0.00000   0.00000   0.00000   0.00000   0.00000
  28        3S         -0.00028  -0.00064   0.00011  -0.00035  -0.00002
  29        3PX         0.00018   0.00136  -0.00032   0.00013   0.00037
  30        3PY         0.00441  -0.00171   0.00095   0.00008   0.00000
  31        3PZ         0.00000   0.00000   0.00000   0.00000   0.00000
  32        4S          0.00637   0.01389  -0.00289   0.00087  -0.00204
  33        4PX        -0.00413  -0.00941   0.00205  -0.00094   0.00145
  34        4PY        -0.00216  -0.00029  -0.00129  -0.00002   0.00022
  35        4PZ         0.00000   0.00000   0.00000   0.00000   0.00000
  36        5S         -0.01322  -0.02403   0.00729   0.03632  -0.04593
  37        5PX         0.00158   0.00495  -0.00224  -0.00352   0.00961
  38        5PY         0.01092  -0.00191   0.01257  -0.00105   0.00408
  39        5PZ         0.00000   0.00000   0.00000   0.00000   0.00000
  40        6D 0        0.00041   0.00088  -0.00019  -0.00009   0.00017
  41        6D+1        0.00000   0.00000   0.00000   0.00000   0.00000
  42        6D-1        0.00000   0.00000   0.00000   0.00000   0.00000
  43        6D+2        0.00078   0.00069  -0.00009  -0.00007   0.00020
  44        6D-2       -0.00210   0.00105  -0.00054  -0.00004   0.00006
  45 3   C  1S         -0.18722   0.48314  -0.20617  -0.03454   0.06003
  46        2S         -0.15404   0.39776  -0.16966  -0.02838   0.04947
  47        2PX         0.00011   0.00006  -0.00007  -0.00008  -0.00003
  48        2PY        -0.00023   0.00027  -0.00009  -0.00002   0.00004
  49        2PZ         0.00000   0.00000   0.00000   0.00000   0.00000
  50        3S         -0.00659   0.01633  -0.00740  -0.00143   0.00165
  51        3PX        -0.00054  -0.00080   0.00068   0.00057   0.00017
  52        3PY         0.00181  -0.00198   0.00074   0.00012  -0.00026
  53        3PZ         0.00000   0.00000   0.00000   0.00000   0.00000
  54        4S         -0.00140  -0.02542   0.01470   0.00167   0.00410
  55        4PX         0.00146   0.00516  -0.00272  -0.00065  -0.00227
  56        4PY         0.00206   0.00928  -0.00404   0.00032  -0.00054
  57        4PZ         0.00000   0.00000   0.00000   0.00000   0.00000
  58        5S          0.09295   0.02537   0.15866   0.03116   0.08569
  59        5PX        -0.02426  -0.00249  -0.03926  -0.01307  -0.01546
  60        5PY        -0.00175  -0.00121  -0.00264   0.00782  -0.00350
  61        5PZ         0.00000   0.00000   0.00000   0.00000   0.00000
  62        6D 0        0.00052  -0.00103   0.00045   0.00009  -0.00016
  63        6D+1        0.00000   0.00000   0.00000   0.00000   0.00000
  64        6D-1        0.00000   0.00000   0.00000   0.00000   0.00000
  65        6D+2        0.00018   0.00058  -0.00052  -0.00035  -0.00006
  66        6D-2        0.00089  -0.00072   0.00035   0.00003  -0.00013
  67 4   H  1S         -0.00015   0.00036  -0.00020  -0.00006  -0.00001
  68        2S         -0.00010  -0.00177   0.00059  -0.00014  -0.00008
  69        3S         -0.00191   0.00019  -0.00076  -0.00003   0.00056
  70 5   C  1S         -0.00879   0.01858   0.00566   0.00939   0.00415
  71        2S         -0.00724   0.01548   0.00469   0.00782   0.00354
  72        2PX        -0.00012   0.00066  -0.00063  -0.00034  -0.00007
  73        2PY        -0.00021   0.00024   0.00051   0.00037   0.00004
  74        2PZ         0.00000   0.00000   0.00000   0.00000   0.00000
  75        3S         -0.00075   0.00021   0.00020   0.00016  -0.00051
  76        3PX         0.00022  -0.00287   0.00253   0.00135   0.00052
  77        3PY         0.00108  -0.00092  -0.00217  -0.00140   0.00002
  78        3PZ         0.00000   0.00000   0.00000   0.00000   0.00000
  79        4S         -0.00167   0.01311   0.00576   0.00251   0.00015
  80        4PX         0.00606   0.00816  -0.01135  -0.00263  -0.00616
  81        4PY        -0.00353  -0.00646   0.00533  -0.00058  -0.00047
  82        4PZ         0.00000   0.00000   0.00000   0.00000   0.00000
  83        5S         -0.01571  -0.00153  -0.00354   0.00918   0.00100
  84        5PX        -0.07591   0.00139  -0.14452  -0.03510  -0.04323
  85        5PY         0.04086  -0.03561   0.07041  -0.01644  -0.02527
  86        5PZ         0.00000   0.00000   0.00000   0.00000   0.00000
  87        6D 0       -0.00032   0.00063   0.00020   0.00031   0.00011
  88        6D+1        0.00000   0.00000   0.00000   0.00000   0.00000
  89        6D-1        0.00000   0.00000   0.00000   0.00000   0.00000
  90        6D+2        0.00037  -0.00138   0.00095   0.00054   0.00001
  91        6D-2       -0.00026   0.00011   0.00125   0.00098   0.00012
  92 6   C  1S          0.00003   0.00006  -0.00001   0.00004   0.00009
  93        2S          0.00005   0.00012  -0.00002   0.00009   0.00019
  94        2PX         0.00008   0.00014  -0.00004   0.00008  -0.00012
  95        2PY        -0.00015   0.00011   0.00012  -0.00001  -0.00004
  96        2PZ         0.00000   0.00000   0.00000   0.00000   0.00000
  97        3S         -0.00010  -0.00022   0.00003  -0.00017  -0.00035
  98        3PX        -0.00051  -0.00094   0.00025  -0.00049   0.00080
  99        3PY         0.00095  -0.00072  -0.00080   0.00005   0.00024
 100        3PZ         0.00000   0.00000   0.00000   0.00000   0.00000
 101        4S         -0.00317  -0.00678   0.00087  -0.00523  -0.01099
 102        4PX        -0.00381  -0.00724   0.00218  -0.00038   0.00473
 103        4PY         0.00440  -0.00417  -0.00607   0.00057   0.00258
 104        4PZ         0.00000   0.00000   0.00000   0.00000   0.00000
 105        5S         -0.06087  -0.13002   0.01664  -0.10041  -0.21074
 106        5PX        -0.00005  -0.00105   0.00096   0.01016  -0.00354
 107        5PY        -0.00812   0.00351  -0.00056   0.00061   0.00245
 108        5PZ         0.00000   0.00000   0.00000   0.00000   0.00000
 109        6D 0        0.00003   0.00006  -0.00001   0.00005   0.00010
 110        6D+1        0.00000   0.00000   0.00000   0.00000   0.00000
 111        6D-1        0.00000   0.00000   0.00000   0.00000   0.00000
 112        6D+2        0.00003   0.00045   0.00001   0.00053  -0.00044
 113        6D-2        0.00070  -0.00031  -0.00032   0.00014  -0.00010
 114 7   C  1S          0.01827   0.00304  -0.00847   0.01141   0.00417
 115        2S          0.01517   0.00261  -0.00705   0.00950   0.00358
 116        2PX         0.00070   0.00046   0.00024  -0.00031  -0.00012
 117        2PY        -0.00010   0.00025   0.00050  -0.00052  -0.00015
 118        2PZ         0.00000   0.00000   0.00000   0.00000   0.00000
 119        3S          0.00059  -0.00048  -0.00013   0.00023  -0.00072
 120        3PX        -0.00282  -0.00212  -0.00084   0.00121   0.00080
 121        3PY         0.00051  -0.00129  -0.00209   0.00202   0.00062
 122        3PZ         0.00000   0.00000   0.00000   0.00000   0.00000
 123        4S          0.00979   0.00465  -0.00892   0.00394   0.00512
 124        4PX         0.00307   0.01138   0.00566  -0.00398  -0.00878
 125        4PY         0.00383   0.01033   0.00330  -0.00071  -0.00235
 126        4PZ         0.00000   0.00000   0.00000   0.00000   0.00000
 127        5S          0.00911  -0.01063   0.00720   0.00945  -0.01233
 128        5PX         0.06258  -0.01178   0.12592  -0.05517   0.02001
 129        5PY         0.07665   0.01275   0.08587  -0.00083   0.05205
 130        5PZ         0.00000   0.00000   0.00000   0.00000   0.00000
 131        6D 0        0.00063   0.00008  -0.00029   0.00038   0.00011
 132        6D+1        0.00000   0.00000   0.00000   0.00000   0.00000
 133        6D-1        0.00000   0.00000   0.00000   0.00000   0.00000
 134        6D+2       -0.00133  -0.00095  -0.00070   0.00095   0.00022
 135        6D-2       -0.00050   0.00018   0.00080  -0.00089  -0.00026
 136 8   C  1S          0.09016  -0.09636  -0.33993   0.41196   0.11444
 137        2S          0.07428  -0.07928  -0.27981   0.33910   0.09431
 138        2PX         0.00012   0.00003  -0.00017   0.00025  -0.00007
 139        2PY         0.00002   0.00009   0.00012  -0.00015  -0.00006
 140        2PZ         0.00000   0.00000   0.00000   0.00000   0.00000
 141        3S          0.00274  -0.00365  -0.01180   0.01403   0.00352
 142        3PX        -0.00084  -0.00020   0.00113  -0.00166   0.00064
 143        3PY        -0.00010  -0.00071  -0.00120   0.00144   0.00041
 144        3PZ         0.00000   0.00000   0.00000   0.00000   0.00000
 145        4S         -0.00121   0.01472   0.01795  -0.01404  -0.01230
 146        4PX         0.00115  -0.00210  -0.00264   0.00301   0.00384
 147        4PY        -0.00087   0.00628   0.00554  -0.00378  -0.00537
 148        4PZ         0.00000   0.00000   0.00000   0.00000   0.00000
 149        5S          0.10496   0.03387   0.14421  -0.00395   0.09480
 150        5PX         0.01755  -0.00142   0.01737  -0.00667   0.00916
 151        5PY         0.02278   0.00472   0.03295  -0.00482   0.01923
 152        5PZ         0.00000   0.00000   0.00000   0.00000   0.00000
 153        6D 0       -0.00020   0.00019   0.00073  -0.00096  -0.00016
 154        6D+1        0.00000   0.00000   0.00000   0.00000   0.00000
 155        6D-1        0.00000   0.00000   0.00000   0.00000   0.00000
 156        6D+2        0.00038   0.00019  -0.00035   0.00059  -0.00043
 157        6D-2       -0.00014  -0.00041  -0.00065   0.00083   0.00018
 158 9   C  1S          0.00076  -0.00198  -0.00401   0.00384   0.00792
 159        2S          0.00069  -0.00169  -0.00344   0.00328   0.00681
 160        2PX         0.00022  -0.00004  -0.00052   0.00071  -0.00036
 161        2PY        -0.00004  -0.00005   0.00007  -0.00017   0.00052
 162        2PZ         0.00000   0.00000   0.00000   0.00000   0.00000
 163        3S         -0.00036   0.00021   0.00029  -0.00011  -0.00059
 164        3PX        -0.00112   0.00003   0.00222  -0.00311   0.00174
 165        3PY         0.00024   0.00012  -0.00048   0.00089  -0.00212
 166        3PZ         0.00000   0.00000   0.00000   0.00000   0.00000
 167        4S          0.00346  -0.00663  -0.00700   0.00351   0.01092
 168        4PX         0.00092  -0.00232  -0.00294   0.00226   0.00226
 169        4PY         0.00244  -0.00396  -0.00386   0.00141   0.00711
 170        4PZ         0.00000   0.00000   0.00000   0.00000   0.00000
 171        5S          0.02766  -0.03083   0.00370  -0.03863  -0.03461
 172        5PX         0.00534  -0.00309   0.01292  -0.00699   0.00230
 173        5PY         0.00095  -0.00600  -0.00555  -0.00433  -0.00955
 174        5PZ         0.00000   0.00000   0.00000   0.00000   0.00000
 175        6D 0        0.00007  -0.00017  -0.00039   0.00039   0.00080
 176        6D+1        0.00000   0.00000   0.00000   0.00000   0.00000
 177        6D-1        0.00000   0.00000   0.00000   0.00000   0.00000
 178        6D+2       -0.00047   0.00008   0.00109  -0.00150   0.00044
 179        6D-2       -0.00030  -0.00010   0.00043  -0.00073   0.00142
 180 10  C  1S         -0.09016   0.14234   0.39348   0.34792   0.09348
 181        2S         -0.07422   0.11724   0.32387   0.28639   0.07702
 182        2PX        -0.00004   0.00018   0.00013   0.00019   0.00000
 183        2PY        -0.00004   0.00001   0.00020   0.00016   0.00001
 184        2PZ         0.00000   0.00000   0.00000   0.00000   0.00000
 185        3S         -0.00310   0.00446   0.01377   0.01181   0.00292
 186        3PX         0.00025  -0.00118  -0.00078  -0.00120   0.00011
 187        3PY         0.00037  -0.00019  -0.00174  -0.00145  -0.00010
 188        3PZ         0.00000   0.00000   0.00000   0.00000   0.00000
 189        4S          0.00902   0.00117  -0.02352  -0.01050  -0.00728
 190        4PX        -0.00112   0.00079   0.00209   0.00196   0.00218
 191        4PY        -0.00460  -0.00092   0.00819   0.00300   0.00293
 192        4PZ         0.00000   0.00000   0.00000   0.00000   0.00000
 193        5S         -0.06476   0.04932  -0.15920   0.01670   0.01135
 194        5PX        -0.01736   0.00730  -0.02493  -0.00468   0.00516
 195        5PY         0.01332  -0.00727   0.03200  -0.00065  -0.00014
 196        5PZ         0.00000   0.00000   0.00000   0.00000   0.00000
 197        6D 0        0.00019  -0.00033  -0.00084  -0.00082  -0.00016
 198        6D+1        0.00000   0.00000   0.00000   0.00000   0.00000
 199        6D-1        0.00000   0.00000   0.00000   0.00000   0.00000
 200        6D+2       -0.00013   0.00047   0.00056   0.00072  -0.00004
 201        6D-2        0.00010   0.00026  -0.00074  -0.00049  -0.00012
 202 11  H  1S         -0.00011   0.00004   0.00034   0.00026   0.00003
 203        2S          0.00069  -0.00029  -0.00117  -0.00082  -0.00062
 204        3S          0.00081   0.00081   0.00083   0.00109   0.00002
 205 12  C  1S         -0.00125  -0.00402   0.00054  -0.00722   0.02029
 206        2S         -0.00101  -0.00329   0.00045  -0.00589   0.01693
 207        2PX         0.00009   0.00021  -0.00004   0.00018  -0.00046
 208        2PY        -0.00004   0.00006   0.00009   0.00002  -0.00047
 209        2PZ         0.00000   0.00000   0.00000   0.00000   0.00000
 210        3S         -0.00019  -0.00047   0.00002  -0.00096   0.00004
 211        3PX        -0.00049  -0.00109   0.00026  -0.00082   0.00178
 212        3PY         0.00033  -0.00045  -0.00076  -0.00004   0.00194
 213        3PZ         0.00000   0.00000   0.00000   0.00000   0.00000
 214        4S         -0.00288  -0.00658   0.00173   0.00218   0.01284
 215        4PX         0.00143   0.00117  -0.00093   0.00134   0.00408
 216        4PY        -0.00740   0.00546   0.00849  -0.00067  -0.00583
 217        4PZ         0.00000   0.00000   0.00000   0.00000   0.00000
 218        5S          0.00313   0.00514  -0.00312  -0.02406  -0.00014
 219        5PX         0.01681   0.02620   0.00774  -0.00420   0.05294
 220        5PY        -0.04516  -0.00662  -0.14655   0.01118  -0.05169
 221        5PZ         0.00000   0.00000   0.00000   0.00000   0.00000
 222        6D 0       -0.00005  -0.00016   0.00002  -0.00027   0.00067
 223        6D+1        0.00000   0.00000   0.00000   0.00000   0.00000
 224        6D-1        0.00000   0.00000   0.00000   0.00000   0.00000
 225        6D+2       -0.00014  -0.00034   0.00003  -0.00032   0.00113
 226        6D-2        0.00003  -0.00004   0.00015  -0.00005  -0.00069
 227 13  C  1S         -0.00128   0.00091   0.00494   0.00316   0.00342
 228        2S         -0.00112   0.00081   0.00423   0.00270   0.00298
 229        2PX        -0.00013   0.00032   0.00053   0.00057  -0.00005
 230        2PY        -0.00002   0.00015   0.00015   0.00025  -0.00023
 231        2PZ         0.00000   0.00000   0.00000   0.00000   0.00000
 232        3S          0.00033  -0.00023  -0.00031  -0.00004  -0.00046
 233        3PX         0.00055  -0.00160  -0.00218  -0.00249   0.00032
 234        3PY         0.00018  -0.00074  -0.00084  -0.00122   0.00109
 235        3PZ         0.00000   0.00000   0.00000   0.00000   0.00000
 236        4S         -0.00591   0.00112   0.00882   0.00209   0.00470
 237        4PX        -0.00249   0.00052   0.00448   0.00173   0.00209
 238        4PY         0.00340  -0.00072  -0.00411  -0.00032  -0.00262
 239        4PZ         0.00000   0.00000   0.00000   0.00000   0.00000
 240        5S         -0.04067  -0.00103  -0.00398  -0.04081  -0.01010
 241        5PX        -0.00815  -0.00264  -0.01150  -0.00611  -0.00446
 242        5PY         0.00286   0.00077  -0.00821   0.00459   0.00240
 243        5PZ         0.00000   0.00000   0.00000   0.00000   0.00000
 244        6D 0       -0.00010   0.00010   0.00048   0.00033   0.00036
 245        6D+1        0.00000   0.00000   0.00000   0.00000   0.00000
 246        6D-1        0.00000   0.00000   0.00000   0.00000   0.00000
 247        6D+2        0.00029  -0.00084  -0.00123  -0.00142   0.00028
 248        6D-2       -0.00002   0.00018  -0.00003   0.00016  -0.00050
 249 14  H  1S          0.00009  -0.00005  -0.00016  -0.00007  -0.00014
 250        2S         -0.00063   0.00007   0.00059  -0.00008   0.00027
 251        3S         -0.00051   0.00059   0.00189   0.00130   0.00169
 252 15  C  1S         -0.01342  -0.06711  -0.00824  -0.10307   0.17942
 253        2S         -0.01105  -0.05520  -0.00673  -0.08479   0.14779
 254        2PX        -0.00001   0.00007   0.00001   0.00008  -0.00007
 255        2PY        -0.00004   0.00007   0.00012   0.00012  -0.00013
 256        2PZ         0.00000   0.00000   0.00000   0.00000   0.00000
 257        3S         -0.00063  -0.00244  -0.00042  -0.00371   0.00557
 258        3PX         0.00007  -0.00060  -0.00022  -0.00078   0.00059
 259        3PY         0.00027  -0.00045  -0.00087  -0.00080   0.00079
 260        3PZ         0.00000   0.00000   0.00000   0.00000   0.00000
 261        4S          0.00901  -0.00084  -0.00788   0.00220  -0.00305
 262        4PX         0.00400  -0.00110  -0.00520   0.00041  -0.00187
 263        4PY        -0.00098  -0.00071   0.00056  -0.00023  -0.00141
 264        4PZ         0.00000   0.00000   0.00000   0.00000   0.00000
 265        5S          0.07503   0.02739   0.14465   0.01492   0.10663
 266        5PX         0.01157   0.00142   0.02067   0.00421   0.01127
 267        5PY        -0.00772  -0.00966  -0.03031   0.00270  -0.02153
 268        5PZ         0.00000   0.00000   0.00000   0.00000   0.00000
 269        6D 0       -0.00003   0.00018   0.00008   0.00030  -0.00038
 270        6D+1        0.00000   0.00000   0.00000   0.00000   0.00000
 271        6D-1        0.00000   0.00000   0.00000   0.00000   0.00000
 272        6D+2       -0.00007   0.00024   0.00020   0.00041  -0.00018
 273        6D-2        0.00014  -0.00019  -0.00046  -0.00035   0.00035
 274 16  H  1S         -0.00004  -0.00006   0.00002  -0.00012   0.00006
 275        2S          0.00037  -0.00014  -0.00062   0.00018  -0.00068
 276        3S          0.00053  -0.00043  -0.00187  -0.00053   0.00034
 277 17  C  1S         -0.02460  -0.05785   0.02648  -0.11370   0.50640
 278        2S         -0.02023  -0.04761   0.02175  -0.09353   0.41691
 279        2PX         0.00006   0.00004  -0.00005   0.00012  -0.00029
 280        2PY        -0.00004   0.00003   0.00011  -0.00012   0.00009
 281        2PZ         0.00000   0.00000   0.00000   0.00000   0.00000
 282        3S         -0.00082  -0.00215   0.00107  -0.00410   0.01703
 283        3PX        -0.00043  -0.00026   0.00045  -0.00102   0.00229
 284        3PY         0.00024  -0.00022  -0.00074   0.00079  -0.00027
 285        3PZ         0.00000   0.00000   0.00000   0.00000   0.00000
 286        4S         -0.00574   0.00913   0.00606   0.00105  -0.02220
 287        4PX        -0.00274   0.00385   0.00431  -0.00044  -0.00878
 288        4PY        -0.00049   0.00203   0.00095   0.00008  -0.00062
 289        4PZ         0.00000   0.00000   0.00000   0.00000   0.00000
 290        5S         -0.05056   0.02447  -0.14984   0.03672   0.00485
 291        5PX        -0.00927   0.00250  -0.01460   0.00655  -0.00072
 292        5PY        -0.00397   0.00178  -0.03545   0.00376  -0.00419
 293        5PZ         0.00000   0.00000   0.00000   0.00000   0.00000
 294        6D 0        0.00011   0.00008  -0.00011   0.00033  -0.00110
 295        6D+1        0.00000   0.00000   0.00000   0.00000   0.00000
 296        6D-1        0.00000   0.00000   0.00000   0.00000   0.00000
 297        6D+2        0.00010   0.00010  -0.00005   0.00029  -0.00092
 298        6D-2        0.00018  -0.00010  -0.00046   0.00056  -0.00037
 299 18  H  1S         -0.00002  -0.00008   0.00000  -0.00012   0.00035
 300        2S         -0.00029   0.00043   0.00055   0.00009  -0.00164
 301        3S         -0.00033   0.00071   0.00171  -0.00086   0.00093
 302 19  H  1S         -0.00014  -0.00030   0.00006  -0.00003  -0.00002
 303        2S          0.00037   0.00083  -0.00016   0.00026  -0.00039
 304        3S          0.00171   0.00365  -0.00077  -0.00008   0.00078
 305 20  H  1S          0.00040   0.00017   0.00008  -0.00007  -0.00005
 306        2S         -0.00132  -0.00132   0.00005  -0.00014   0.00011
 307        3S          0.00154  -0.00105   0.00095  -0.00006   0.00094
 308 21  H  1S          0.00003  -0.00016  -0.00027   0.00032   0.00005
 309        2S         -0.00047   0.00070   0.00092  -0.00102  -0.00098
 310        3S         -0.00013   0.00086  -0.00101   0.00123  -0.00104
 311 22  H  1S         -0.00008   0.00009   0.00014  -0.00010  -0.00027
 312        2S          0.00039  -0.00062  -0.00046   0.00003   0.00057
 313        3S          0.00049  -0.00063  -0.00159   0.00157   0.00338
                           6         7         8         9        10
                           O         O         O         O         O
     Eigenvalues --   -10.36750 -10.35970 -10.35969 -10.35968 -10.35410
   1 1   C  1S          0.01913  -0.01195  -0.01182   0.00137   0.00060
   2        2S          0.01577  -0.00967  -0.00968   0.00115   0.00054
   3        2PX         0.00000  -0.00055  -0.00044   0.00009  -0.00004
   4        2PY        -0.00001  -0.00010  -0.00010   0.00002  -0.00002
   5        2PZ         0.00000   0.00000   0.00000   0.00000   0.00000
   6        3S          0.00043  -0.00096  -0.00008  -0.00025  -0.00022
   7        3PX        -0.00002   0.00213   0.00145  -0.00042   0.00045
   8        3PY         0.00006   0.00043   0.00055  -0.00021   0.00004
   9        3PZ         0.00000   0.00000   0.00000   0.00000   0.00000
  10        4S          0.00185   0.00440   0.00060   0.00774   0.00002
  11        4PX        -0.00081  -0.00266  -0.00042  -0.00237  -0.00013
  12        4PY        -0.00050   0.00259   0.00258   0.00152  -0.00308
  13        4PZ         0.00000   0.00000   0.00000   0.00000   0.00000
  14        5S          0.11336  -0.02261  -0.00734   0.02779  -0.05073
  15        5PX        -0.02584   0.00679   0.00050  -0.00918   0.01076
  16        5PY        -0.00255   0.00271  -0.00483  -0.00301   0.00168
  17        5PZ         0.00000   0.00000   0.00000   0.00000   0.00000
  18        6D 0       -0.00007   0.00046   0.00049  -0.00006  -0.00002
  19        6D+1        0.00000   0.00000   0.00000   0.00000   0.00000
  20        6D-1        0.00000   0.00000   0.00000   0.00000   0.00000
  21        6D+2        0.00002  -0.00109  -0.00086   0.00018  -0.00030
  22        6D-2        0.00005  -0.00005  -0.00006  -0.00004   0.00002
  23 2   C  1S          0.00058  -0.00074  -0.00009  -0.00036  -0.00039
  24        2S          0.00051  -0.00052  -0.00008  -0.00027  -0.00026
  25        2PX        -0.00003  -0.00003   0.00001  -0.00001  -0.00001
  26        2PY         0.00002  -0.00003  -0.00010   0.00008   0.00000
  27        2PZ         0.00000   0.00000   0.00000   0.00000   0.00000
  28        3S          0.00000  -0.00040   0.00005  -0.00005  -0.00044
  29        3PX         0.00017   0.00049  -0.00006   0.00021   0.00019
  30        3PY        -0.00012   0.00022   0.00075  -0.00055   0.00002
  31        3PZ         0.00000   0.00000   0.00000   0.00000   0.00000
  32        4S         -0.00099  -0.00398  -0.00234  -0.00437   0.00474
  33        4PX         0.00072   0.00293   0.00117   0.00251  -0.00200
  34        4PY        -0.00002   0.00030   0.00027   0.00009  -0.00017
  35        4PZ         0.00000   0.00000   0.00000   0.00000   0.00000
  36        5S         -0.02095  -0.00084   0.01561   0.02056   0.02503
  37        5PX         0.00516  -0.00169  -0.00156  -0.00230  -0.00805
  38        5PY        -0.00758   0.00025   0.00155  -0.00146  -0.00069
  39        5PZ         0.00000   0.00000   0.00000   0.00000   0.00000
  40        6D 0        0.00007   0.00006   0.00000   0.00002   0.00001
  41        6D+1        0.00000   0.00000   0.00000   0.00000   0.00000
  42        6D-1        0.00000   0.00000   0.00000   0.00000   0.00000
  43        6D+2        0.00008   0.00023   0.00008   0.00003   0.00004
  44        6D-2        0.00007  -0.00006  -0.00039   0.00031   0.00001
  45 3   C  1S          0.02679  -0.00740   0.00754  -0.01316   0.00060
  46        2S          0.02208  -0.00594   0.00617  -0.01074   0.00054
  47        2PX        -0.00003  -0.00037   0.00036  -0.00051  -0.00004
  48        2PY         0.00002   0.00000  -0.00002   0.00002   0.00001
  49        2PZ         0.00000   0.00000   0.00000   0.00000   0.00000
  50        3S          0.00079  -0.00093   0.00007  -0.00036  -0.00022
  51        3PX         0.00021   0.00149  -0.00141   0.00175   0.00045
  52        3PY        -0.00013   0.00006   0.00021  -0.00024   0.00004
  53        3PZ         0.00000   0.00000   0.00000   0.00000   0.00000
  54        4S          0.00239   0.00562   0.00576   0.00387   0.00002
  55        4PX        -0.00131  -0.00248  -0.00129  -0.00107  -0.00066
  56        4PY        -0.00132  -0.00246  -0.00028  -0.00366   0.00301
  57        4PZ         0.00000   0.00000   0.00000   0.00000   0.00000
  58        5S         -0.07172  -0.01290   0.03409  -0.00327  -0.05066
  59        5PX         0.02104   0.00468  -0.01087  -0.00168   0.01085
  60        5PY        -0.00126  -0.00250   0.00057   0.00459   0.00021
  61        5PZ         0.00000   0.00000   0.00000   0.00000   0.00000
  62        6D 0       -0.00004   0.00028  -0.00030   0.00054  -0.00002
  63        6D+1        0.00000   0.00000   0.00000   0.00000   0.00000
  64        6D-1        0.00000   0.00000   0.00000   0.00000   0.00000
  65        6D+2       -0.00012  -0.00070   0.00064  -0.00095  -0.00028
  66        6D-2       -0.00005  -0.00021   0.00025  -0.00026  -0.00012
  67 4   H  1S         -0.00003  -0.00013   0.00004  -0.00009   0.00000
  68        2S          0.00019   0.00024  -0.00006   0.00029  -0.00062
  69        3S          0.00086   0.00109  -0.00052   0.00187  -0.00058
  70 5   C  1S          0.00209   0.26271  -0.24252   0.43347  -0.02300
  71        2S          0.00181   0.21628  -0.19958   0.35669  -0.01880
  72        2PX        -0.00009  -0.00006   0.00002   0.00005  -0.00033
  73        2PY         0.00013  -0.00014  -0.00002   0.00007  -0.00070
  74        2PZ         0.00000   0.00000   0.00000   0.00000   0.00000
  75        3S         -0.00049   0.00866  -0.00844   0.01529  -0.00095
  76        3PX         0.00062   0.00035  -0.00014  -0.00032   0.00119
  77        3PY        -0.00061   0.00083   0.00017  -0.00048   0.00256
  78        3PZ         0.00000   0.00000   0.00000   0.00000   0.00000
  79        4S          0.00664  -0.01031   0.01237  -0.02338   0.00600
  80        4PX        -0.00644  -0.00145  -0.00945   0.00078  -0.00327
  81        4PY         0.00141   0.00052  -0.00046   0.01056  -0.00699
  82        4PZ         0.00000   0.00000   0.00000   0.00000   0.00000
  83        5S         -0.01663   0.00745  -0.01563   0.03179   0.00686
  84        5PX         0.08421   0.00371  -0.02757  -0.01722   0.01652
  85        5PY        -0.04535   0.02126   0.01409  -0.00406   0.03546
  86        5PZ         0.00000   0.00000   0.00000   0.00000   0.00000
  87        6D 0        0.00006  -0.00068   0.00063  -0.00113   0.00063
  88        6D+1        0.00000   0.00000   0.00000   0.00000   0.00000
  89        6D-1        0.00000   0.00000   0.00000   0.00000   0.00000
  90        6D+2        0.00009   0.00040  -0.00002  -0.00005   0.00087
  91        6D-2        0.00029  -0.00047   0.00007   0.00008  -0.00103
  92 6   C  1S          0.00004   0.03885  -0.00787   0.00172   0.56146
  93        2S          0.00008   0.03219  -0.00652   0.00143   0.46205
  94        2PX        -0.00006   0.00010   0.00064   0.00074   0.00000
  95        2PY         0.00005  -0.00017  -0.00072   0.00065   0.00000
  96        2PZ         0.00000   0.00000   0.00000   0.00000   0.00000
  97        3S         -0.00016   0.00115  -0.00023   0.00005   0.01969
  98        3PX         0.00041  -0.00037  -0.00244  -0.00282   0.00000
  99        3PY        -0.00037   0.00066   0.00275  -0.00247   0.00000
 100        3PZ         0.00000   0.00000   0.00000   0.00000   0.00000
 101        4S         -0.00487   0.00826  -0.00167   0.00036  -0.03291
 102        4PX         0.00267   0.00193   0.01269   0.01467   0.00000
 103        4PY        -0.00457  -0.00345  -0.01427   0.01281   0.00000
 104        4PZ         0.00000   0.00000   0.00000   0.00000   0.00000
 105        5S         -0.09350   0.08951  -0.01816   0.00390   0.20980
 106        5PX        -0.00109   0.00172   0.01145   0.01322  -0.00004
 107        5PY        -0.00583  -0.00312  -0.01288   0.01155  -0.00001
 108        5PZ         0.00000   0.00000   0.00000   0.00000   0.00000
 109        6D 0        0.00005   0.00089  -0.00018   0.00004  -0.00145
 110        6D+1        0.00000   0.00000   0.00000   0.00000   0.00000
 111        6D-1        0.00000   0.00000   0.00000   0.00000   0.00000
 112        6D+2       -0.00021   0.00008   0.00073   0.00148   0.00000
 113        6D-2       -0.00001   0.00033   0.00145  -0.00073   0.00000
 114 7   C  1S          0.00135   0.40985   0.38275  -0.03544  -0.02298
 115        2S          0.00114   0.33736   0.31492  -0.02915  -0.01878
 116        2PX        -0.00002  -0.00007   0.00007   0.00002  -0.00044
 117        2PY         0.00006   0.00010  -0.00010   0.00003   0.00063
 118        2PZ         0.00000   0.00000   0.00000   0.00000   0.00000
 119        3S         -0.00007   0.01385   0.01365  -0.00128  -0.00095
 120        3PX         0.00009   0.00039  -0.00049  -0.00012   0.00162
 121        3PY        -0.00043  -0.00056   0.00065  -0.00022  -0.00231
 122        3PZ         0.00000   0.00000   0.00000   0.00000   0.00000
 123        4S         -0.00440  -0.01831  -0.02160   0.00210   0.00600
 124        4PX        -0.00065   0.00206   0.00501  -0.00821  -0.00442
 125        4PY         0.00110  -0.00261  -0.00901  -0.00439   0.00632
 126        4PZ         0.00000   0.00000   0.00000   0.00000   0.00000
 127        5S          0.01157   0.01842   0.03100  -0.00317   0.00686
 128        5PX        -0.08620   0.01013  -0.01266  -0.02670   0.02247
 129        5PY        -0.02820  -0.01329   0.01127  -0.02140  -0.03204
 130        5PZ         0.00000   0.00000   0.00000   0.00000   0.00000
 131        6D 0        0.00003  -0.00107  -0.00100   0.00009   0.00063
 132        6D+1        0.00000   0.00000   0.00000   0.00000   0.00000
 133        6D-1        0.00000   0.00000   0.00000   0.00000   0.00000
 134        6D+2       -0.00007   0.00019  -0.00008   0.00005   0.00046
 135        6D-2        0.00009   0.00054  -0.00024   0.00003   0.00127
 136 8   C  1S          0.02677  -0.01197  -0.01190   0.00086   0.00060
 137        2S          0.02203  -0.00968  -0.00976   0.00068   0.00054
 138        2PX         0.00006   0.00028   0.00026   0.00001   0.00003
 139        2PY         0.00004   0.00048   0.00039   0.00001   0.00003
 140        2PZ         0.00000   0.00000   0.00000   0.00000   0.00000
 141        3S          0.00092  -0.00097  -0.00003   0.00023  -0.00022
 142        3PX        -0.00044  -0.00113  -0.00107  -0.00015  -0.00019
 143        3PY        -0.00018  -0.00185  -0.00122  -0.00013  -0.00041
 144        3PZ         0.00000   0.00000   0.00000   0.00000   0.00000
 145        4S          0.00083   0.00472  -0.00115  -0.00749   0.00002
 146        4PX         0.00016  -0.00155  -0.00209   0.00106   0.00294
 147        4PY         0.00132   0.00350   0.00064  -0.00282  -0.00093
 148        4PZ         0.00000   0.00000   0.00000   0.00000   0.00000
 149        5S         -0.07677  -0.02154  -0.01353  -0.02630  -0.05067
 150        5PX        -0.00250  -0.00460   0.00288  -0.00700  -0.00524
 151        5PY        -0.01742  -0.00515  -0.00381  -0.00713  -0.00950
 152        5PZ         0.00000   0.00000   0.00000   0.00000   0.00000
 153        6D 0       -0.00008   0.00046   0.00049  -0.00004  -0.00002
 154        6D+1        0.00000   0.00000   0.00000   0.00000   0.00000
 155        6D-1        0.00000   0.00000   0.00000   0.00000   0.00000
 156        6D+2        0.00027   0.00080   0.00064   0.00005   0.00024
 157        6D-2       -0.00002  -0.00074  -0.00060   0.00003  -0.00018
 158 9   C  1S         -0.00237  -0.00076  -0.00001   0.00034  -0.00039
 159        2S         -0.00199  -0.00053  -0.00002   0.00026  -0.00026
 160        2PX         0.00020   0.00003   0.00010   0.00005   0.00001
 161        2PY        -0.00016   0.00002  -0.00005  -0.00002   0.00001
 162        2PZ         0.00000   0.00000   0.00000   0.00000   0.00000
 163        3S         -0.00008  -0.00040   0.00006   0.00002  -0.00044
 164        3PX        -0.00086  -0.00036  -0.00077  -0.00029  -0.00008
 165        3PY         0.00051  -0.00040   0.00040   0.00029  -0.00018
 166        3PZ         0.00000   0.00000   0.00000   0.00000   0.00000
 167        4S         -0.00335  -0.00417  -0.00131   0.00462   0.00474
 168        4PX         0.00018  -0.00132  -0.00043   0.00102   0.00085
 169        4PY        -0.00236  -0.00274  -0.00046   0.00238   0.00182
 170        4PZ         0.00000   0.00000   0.00000   0.00000   0.00000
 171        5S          0.01606   0.00008   0.01058  -0.02358   0.02506
 172        5PX        -0.00790   0.00043  -0.00139  -0.00188   0.00343
 173        5PY         0.00439   0.00175   0.00158  -0.00199   0.00732
 174        5PZ         0.00000   0.00000   0.00000   0.00000   0.00000
 175        6D 0       -0.00022   0.00006   0.00000  -0.00002   0.00001
 176        6D+1        0.00000   0.00000   0.00000   0.00000   0.00000
 177        6D-1        0.00000   0.00000   0.00000   0.00000   0.00000
 178        6D+2       -0.00027  -0.00020  -0.00035  -0.00011  -0.00003
 179        6D-2       -0.00049   0.00011  -0.00030  -0.00019   0.00003
 180 10  C  1S          0.05906  -0.00749   0.00708  -0.01337   0.00060
 181        2S          0.04870  -0.00602   0.00574  -0.01094   0.00054
 182        2PX        -0.00011   0.00025  -0.00017   0.00038   0.00003
 183        2PY         0.00005  -0.00030   0.00020  -0.00041  -0.00003
 184        2PZ         0.00000   0.00000   0.00000   0.00000   0.00000
 185        3S          0.00172  -0.00085   0.00050  -0.00017  -0.00022
 186        3PX         0.00086  -0.00100   0.00055  -0.00154  -0.00026
 187        3PY        -0.00025   0.00124  -0.00062   0.00133   0.00037
 188        3PZ         0.00000   0.00000   0.00000   0.00000   0.00000
 189        4S         -0.00948   0.00309  -0.00804  -0.00232   0.00002
 190        4PX         0.00184  -0.00017   0.00124  -0.00184   0.00274
 191        4PY         0.00524  -0.00253   0.00406  -0.00082   0.00143
 192        4PZ         0.00000   0.00000   0.00000   0.00000   0.00000
 193        5S          0.12406  -0.02183  -0.01492  -0.02526  -0.05074
 194        5PX         0.01346  -0.00745  -0.00647  -0.00165  -0.00683
 195        5PY        -0.02458   0.00401   0.00314   0.00665   0.00848
 196        5PZ         0.00000   0.00000   0.00000   0.00000   0.00000
 197        6D 0       -0.00004   0.00028  -0.00029   0.00055  -0.00002
 198        6D+1        0.00000   0.00000   0.00000   0.00000   0.00000
 199        6D-1        0.00000   0.00000   0.00000   0.00000   0.00000
 200        6D+2       -0.00044   0.00036  -0.00018   0.00050   0.00017
 201        6D-2       -0.00030   0.00067  -0.00047   0.00094   0.00025
 202 11  H  1S          0.00003  -0.00013   0.00008  -0.00007   0.00000
 203        2S         -0.00074   0.00021  -0.00025   0.00021  -0.00062
 204        3S         -0.00146   0.00094  -0.00136   0.00149  -0.00058
 205 12  C  1S          0.00926   0.27888  -0.33297  -0.35649  -0.02296
 206        2S          0.00773   0.22959  -0.27401  -0.29333  -0.01877
 207        2PX        -0.00031   0.00015   0.00003   0.00008   0.00077
 208        2PY         0.00094   0.00001  -0.00002   0.00003   0.00007
 209        2PZ         0.00000   0.00000   0.00000   0.00000   0.00000
 210        3S          0.00003   0.00923  -0.01164  -0.01262  -0.00095
 211        3PX         0.00123  -0.00087  -0.00023  -0.00055  -0.00281
 212        3PY        -0.00384  -0.00003   0.00016  -0.00018  -0.00024
 213        3PZ         0.00000   0.00000   0.00000   0.00000   0.00000
 214        4S          0.00580  -0.01119   0.01729   0.01954   0.00600
 215        4PX         0.00039  -0.00039   0.00588   0.00909   0.00768
 216        4PY         0.01378   0.00170   0.00785  -0.00472   0.00067
 217        4PZ         0.00000   0.00000   0.00000   0.00000   0.00000
 218        5S          0.00025   0.00866  -0.02239  -0.02713   0.00683
 219        5PX         0.01030  -0.02088  -0.00596  -0.00945  -0.03902
 220        5PY         0.13189   0.00459   0.02661  -0.02117  -0.00344
 221        5PZ         0.00000   0.00000   0.00000   0.00000   0.00000
 222        6D 0        0.00031  -0.00073   0.00087   0.00093   0.00063
 223        6D+1        0.00000   0.00000   0.00000   0.00000   0.00000
 224        6D-1        0.00000   0.00000   0.00000   0.00000   0.00000
 225        6D+2        0.00012  -0.00060   0.00004  -0.00013  -0.00133
 226        6D-2        0.00197  -0.00010   0.00003  -0.00004  -0.00023
 227 13  C  1S          0.00742  -0.00063   0.00054  -0.00007  -0.00039
 228        2S          0.00635  -0.00043   0.00040  -0.00005  -0.00026
 229        2PX        -0.00033   0.00002   0.00001   0.00011   0.00001
 230        2PY        -0.00057  -0.00003   0.00002   0.00007  -0.00001
 231        2PZ         0.00000   0.00000   0.00000   0.00000   0.00000
 232        3S         -0.00039  -0.00038   0.00012  -0.00002  -0.00044
 233        3PX         0.00157  -0.00025   0.00006  -0.00081  -0.00011
 234        3PY         0.00225   0.00039  -0.00028  -0.00051   0.00016
 235        3PZ         0.00000   0.00000   0.00000   0.00000   0.00000
 236        4S          0.01036  -0.00249   0.00581  -0.00072   0.00474
 237        4PX         0.00270  -0.00120   0.00194  -0.00043   0.00115
 238        4PY        -0.00653   0.00172  -0.00282   0.00023  -0.00165
 239        4PZ         0.00000   0.00000   0.00000   0.00000   0.00000
 240        5S         -0.03520  -0.00815  -0.02438   0.00264   0.02506
[...]
 XXYZ=              0.0000 YYXZ=              0.0000 ZZXY=            -13.3888
 N-N= 6.984591327830D+02 E-N=-2.543605048548D+03  KE= 4.985004955651D+02
 Orbital energies and kinetic energies (alpha):
                                 1                 2
   1         O               -10.367532         15.954890
   2         O               -10.367523         15.955632
   3         O               -10.367518         15.954702
   4         O               -10.367517         15.954863
   5         O               -10.367501         15.956037
   6         O               -10.367499         15.954955
   7         O               -10.359699         15.954017
   8         O               -10.359686         15.953143
   9         O               -10.359683         15.953107
  10         O               -10.354104         15.953183
  11         O               -10.346163         15.953944
  12         O               -10.346162         15.954050
  13         O               -10.346149         15.954017
  14         O                -1.068265          1.482176
  15         O                -1.008300          1.532281
  16         O                -1.008276          1.532268
  17         O                -0.930147          1.640281
  18         O                -0.930142          1.640286
  19         O                -0.919094          1.680121
  20         O                -0.846739          1.657487
  21         O                -0.801082          1.484914
  22         O                -0.788523          1.498289
  23         O                -0.788519          1.498354
  24         O                -0.693046          1.353767
  25         O                -0.693033          1.353855
  26         O                -0.683061          1.385046
  27         O                -0.683043          1.385033
  28         O                -0.647226          1.177851
  29         O                -0.607150          1.411604
  30         O                -0.607130          1.411588
  31         O                -0.605417          1.501458
  32         O                -0.581668          0.913825
  33         O                -0.577856          1.399782
  34         O                -0.561989          1.365541
  35         O                -0.561953          1.365626
  36         O                -0.551722          1.471370
  37         O                -0.512434          1.015240
  38         O                -0.512413          1.015251
  39         O                -0.506149          1.580722
  40         O                -0.506132          1.580772
  41         O                -0.427253          1.161220
  42         O                -0.427248          1.161240
  43         O                -0.423712          1.186461
  44         V                -0.291617          1.306009
  45         V                -0.187798          1.348547
  46         V                -0.181124          1.395348
  47         V                -0.181119          1.395396
  48         V                -0.119205          0.374768
  49         V                -0.102035          0.373650
  50         V                -0.102023          0.373671
  51         V                -0.092057          0.331802
  52         V                -0.082802          0.399111
  53         V                -0.082799          0.399051
  54         V                -0.082308          1.272866
  55         V                -0.082292          1.273017
  56         V                -0.072844          0.251692
  57         V                -0.059171          0.458771
  58         V                -0.056946          0.349925
  59         V                -0.042080          0.379407
  60         V                -0.041976          0.378994
  61         V                -0.040487          0.337060
  62         V                -0.040405          0.337293
  63         V                -0.029456          0.472623
  64         V                -0.029446          0.472527
  65         V                -0.007161          0.327038
  66         V                 0.000883          0.542975
  67         V                 0.000889          0.543616
  68         V                 0.013102          0.496821
  69         V                 0.013111          0.496673
  70         V                 0.017451          0.671221
  71         V                 0.017689          0.636124
  72         V                 0.022528          0.414398
  73         V                 0.022578          0.414978
  74         V                 0.034690          0.307791
  75         V                 0.038151          0.544901
  76         V                 0.043313          0.802018
  77         V                 0.051975          0.814442
  78         V                 0.051982          0.814332
  79         V                 0.064192          0.369547
  80         V                 0.064443          0.369350
  81         V                 0.065921          0.584469
  82         V                 0.066067          0.933233
  83         V                 0.066082          0.932278
  84         V                 0.070495          1.628400
  85         V                 0.075196          0.372070
  86         V                 0.085513          1.203122
  87         V                 0.085548          1.202767
  88         V                 0.093881          0.356072
  89         V                 0.094168          0.355938
  90         V                 0.100430          1.018338
  91         V                 0.100554          0.661608
  92         V                 0.116112          1.260013
  93         V                 0.116133          1.259374
  94         V                 0.116512          0.458030
  95         V                 0.122611          0.471951
  96         V                 0.123028          0.476574
  97         V                 0.130687          1.267043
  98         V                 0.138762          0.962308
  99         V                 0.138808          0.957990
 100         V                 0.146780          0.470996
 101         V                 0.151434          1.085930
 102         V                 0.151437          1.086168
 103         V                 0.162030          1.027056
 104         V                 0.162160          1.027240
 105         V                 0.176289          1.321311
 106         V                 0.179328          0.754630
 107         V                 0.179481          0.762059
 108         V                 0.184813          0.889456
 109         V                 0.191408          0.780445
 110         V                 0.191575          0.774683
 111         V                 0.217439          0.786716
 112         V                 0.222004          0.821175
 113         V                 0.222082          0.820231
 114         V                 0.257715          0.669229
 115         V                 0.296122          1.478490
 116         V                 0.301065          2.647486
 117         V                 0.318493          1.901480
 118         V                 0.318706          1.201923
 119         V                 0.318733          1.195539
 120         V                 0.342035          2.069071
 121         V                 0.342049          2.069573
 122         V                 0.374193          1.388751
 123         V                 0.375196          1.700119
 124         V                 0.397318          1.457964
 125         V                 0.397353          1.457492
 126         V                 0.402622          1.386270
 127         V                 0.402647          1.386267
 128         V                 0.422018          1.473093
 129         V                 0.422103          1.472979
 130         V                 0.423766          1.552779
 131         V                 0.430673          1.765416
 132         V                 0.430884          1.770630
 133         V                 0.432170          1.687596
 134         V                 0.434932          1.747660
 135         V                 0.434999          1.741360
 136         V                 0.453878          1.484384
 137         V                 0.482859          1.485329
 138         V                 0.486880          1.971119
 139         V                 0.492593          1.824937
 140         V                 0.492771          1.824702
 141         V                 0.493276          1.503143
 142         V                 0.494745          1.570994
 143         V                 0.494763          1.570983
 144         V                 0.548890          2.222004
 145         V                 0.556122          1.587752
 146         V                 0.556146          1.587824
 147         V                 0.558820          2.113037
 148         V                 0.566034          2.120346
 149         V                 0.566043          2.120123
 150         V                 0.582886          2.308877
 151         V                 0.582898          2.309321
 152         V                 0.601767          2.196600
 153         V                 0.601795          2.197012
 154         V                 0.627135          1.846979
 155         V                 0.627892          1.668618
 156         V                 0.678741          1.823282
 157         V                 0.678749          1.823326
 158         V                 0.683246          2.011692
 159         V                 0.688194          1.561325
 160         V                 0.694937          2.122703
 161         V                 0.694954          2.122617
 162         V                 0.726964          1.786966
 163         V                 0.733247          2.243995
 164         V                 0.733264          2.243561
 165         V                 0.774060          2.350653
 166         V                 0.774156          2.341575
 167         V                 0.776540          2.678786
 168         V                 0.782202          2.199528
 169         V                 0.782269          2.190929
 170         V                 0.791641          1.911492
 171         V                 0.791654          1.911519
 172         V                 0.805412          1.880831
 173         V                 0.827990          1.939364
 174         V                 0.828050          1.938367
 175         V                 0.867892          2.390875
 176         V                 0.871990          2.021827
 177         V                 0.927038          2.062809
 178         V                 0.927051          2.062841
 179         V                 0.942020          1.970343
 180         V                 0.942102          1.970541
 181         V                 0.958428          2.086616
 182         V                 0.974450          2.333506
 183         V                 1.015983          2.204110
 184         V                 1.016037          2.204170
 185         V                 1.016678          1.837487
 186         V                 1.026903          2.221733
 187         V                 1.033900          2.242121
 188         V                 1.033938          2.242142
 189         V                 1.061563          2.269122
 190         V                 1.061602          2.269204
 191         V                 1.200688          2.644810
 192         V                 1.225305          2.551956
 193         V                 1.245877          2.276829
 194         V                 1.245918          2.276681
 195         V                 1.320410          2.590630
 196         V                 1.320425          2.591374
 197         V                 1.329674          2.485693
 198         V                 1.336334          2.537817
 199         V                 1.336358          2.538762
 200         V                 1.339245          2.701187
 201         V                 1.372015          2.831965
 202         V                 1.409741          2.599147
 203         V                 1.409789          2.599211
 204         V                 1.422793          2.996495
 205         V                 1.422894          2.996511
 206         V                 1.528973          3.095242
 207         V                 1.529081          3.095349
 208         V                 1.557766          3.053950
 209         V                 1.579739          3.130928
 210         V                 1.618573          2.857728
 211         V                 1.675277          2.922226
 212         V                 1.675318          2.922268
 213         V                 1.675678          3.147371
 214         V                 1.675690          3.147376
 215         V                 1.695857          3.114841
 216         V                 1.705538          2.968370
 217         V                 1.705576          2.968383
 218         V                 1.713589          3.078678
 219         V                 1.739605          3.258985
 220         V                 1.739677          3.259134
 221         V                 1.748747          3.139812
 222         V                 1.814325          3.298757
 223         V                 1.820734          3.173349
 224         V                 1.820905          3.173340
 225         V                 1.854586          3.326139
 226         V                 1.854647          3.326235
 227         V                 1.866016          3.591186
 228         V                 1.885170          3.828154
 229         V                 1.885237          3.828407
 230         V                 1.963548          3.865958
 231         V                 1.984210          3.940274
 232         V                 1.984223          3.940161
 233         V                 2.013542          3.217488
 234         V                 2.090893          3.865798
 235         V                 2.156257          4.386653
 236         V                 2.156309          4.386641
 237         V                 2.206196          4.250524
 238         V                 2.206264          4.250450
 239         V                 2.234067          3.538294
 240         V                 2.234097          3.538314
 241         V                 2.249659          4.549886
 242         V                 2.252259          4.291292
 243         V                 2.269648          4.469049
 244         V                 2.269776          4.469112
 245         V                 2.312516          4.180211
 246         V                 2.312598          4.180238
 247         V                 2.334867          4.545456
 248         V                 2.455295          6.350586
 249         V                 2.502110          6.313165
 250         V                 2.502119          6.313178
 251         V                 2.518398          5.003095
 252         V                 2.557622          4.157980
 253         V                 2.601048          4.686844
 254         V                 2.601167          4.687328
 255         V                 2.602867          6.260129
 256         V                 2.602884          6.260108
 257         V                 2.656770          6.225639
 258         V                 2.674563          4.824558
 259         V                 2.674699          4.824714
 260         V                 2.688175          6.295276
 261         V                 2.727370          6.409349
 262         V                 2.743117          6.387336
 263         V                 2.743129          6.387321
 264         V                 2.881871          6.398192
 265         V                 2.881892          6.398146
 266         V                 2.932201          6.584953
 267         V                 3.018364          7.267548
 268         V                 3.018451          7.267693
 269         V                 3.086675          7.348232
 270         V                 3.091410          6.079717
 271         V                 3.110815          6.941174
 272         V                 3.110844          6.941250
 273         V                 3.125682          6.810063
 274         V                 3.152812          6.700469
 275         V                 3.171016          6.768964
 276         V                 3.171029          6.768915
 277         V                 3.202088          7.213286
 278         V                 3.202134          7.212943
 279         V                 3.268132          6.188381
 280         V                 3.268147          6.189115
 281         V                 3.313264          6.357661
 282         V                 3.389454          6.350165
 283         V                 3.389492          6.349344
 284         V                 3.430160          7.029940
 285         V                 3.479699          7.065299
 286         V                 3.479807          7.064623
 287         V                 3.657388          7.270435
 288         V                 3.723590          7.658785
 289         V                 3.811471          7.563956
 290         V                 3.811494          7.564020
 291         V                 4.109003          7.588945
 292         V                 4.109080          7.589191
 293         V                 4.560648          7.779645
 294         V                 4.634658          7.898041
 295         V                 4.634732          7.897829
 296         V                23.064809         60.102476
 297         V                23.454432         60.240293
 298         V                23.454611         60.240379
 299         V                23.735537         60.358577
 300         V                23.735624         60.358622
 301         V                23.770680         60.378765
 302         V                23.796264         60.366684
 303         V                23.844176         60.361245
 304         V                23.844210         60.361271
 305         V                23.860491         60.360196
 306         V                23.944934         60.388211
 307         V                23.945034         60.388265
 308         V                23.948543         60.365457
 Total kinetic energy from orbitals= 4.985004955651D+02
 1\1\GINC-HOGWARTS\SP\RB3LYP\6-311+G(d)\C13H9(1+)\ANUJA\04-May-2014\0\\
 # B3LYP/6-311+G* NMR=GIAO POP=FULL SCF(MAXCYCLE=512)\\Compund 12 from 
 Renana's XY Paper # Center 1\\1,1\C,0,0.81127,-1.13816,0.\C,0,1.40062,
 0.12187,0.\C,0,0.60266,1.26122,0.\H,0,1.06573,2.24282,0.\C,0,-0.80891,
 1.16399,0.\C,0,-1.40975,-0.12264,0.\C,0,-0.5959,-1.28627,0.\C,0,-1.217
 66,-2.55725,0.\C,0,-2.60341,-2.67857,0.\C,0,-1.64086,2.30846,0.\H,0,-1
 .1857,3.29375,0.\C,0,-2.82465,-0.24568,0.\C,0,-3.02681,2.18875,0.\H,0,
 -3.64754,3.07656,0.\C,0,-3.61465,0.92805,0.\H,0,-4.69617,0.83782,0.\C,
 0,-3.40001,-1.53829,0.\H,0,-4.48083,-1.63688,0.\H,0,2.4798,0.21579,0.\
 H,0,1.43699,-2.02496,0.\H,0,-0.59921,-3.44913,0.\H,0,-3.06177,-3.66011
 ,0.\Bq,0,0.,0.,0.\Bq,0,0.,0.,0.1\Bq,0,0.,0.,0.2\Bq,0,0.,0.,0.3\Bq,0,0.
 ,0.,0.4\Bq,0,0.,0.,0.5\Bq,0,0.,0.,0.6\Bq,0,0.,0.,0.7\Bq,0,0.,0.,0.8\Bq
 ,0,0.,0.,0.9\Bq,0,0.,0.,1.\Bq,0,0.,0.,1.1\Bq,0,0.,0.,1.2\Bq,0,0.,0.,1.
 3\Bq,0,0.,0.,1.4\Bq,0,0.,0.,1.5\Bq,0,0.,0.,1.6\Bq,0,0.,0.,1.7\Bq,0,0.,
 0.,1.8\Bq,0,0.,0.,1.9\Bq,0,0.,0.,2.\Bq,0,0.,0.,2.1\Bq,0,0.,0.,2.2\Bq,0
 ,0.,0.,2.3\Bq,0,0.,0.,2.4\Bq,0,0.,0.,2.5\Bq,0,0.,0.,2.6\Bq,0,0.,0.,2.7
 \Bq,0,0.,0.,2.8\Bq,0,0.,0.,2.9\Bq,0,0.,0.,3.\Bq,0,0.,0.,3.1\Bq,0,0.,0.
 ,3.2\Bq,0,0.,0.,3.3\Bq,0,0.,0.,3.4\Bq,0,0.,0.,3.5\Bq,0,0.,0.,3.6\Bq,0,
 0.,0.,3.7\Bq,0,0.,0.,3.8\Bq,0,0.,0.,3.9\\Version=EM64L-G09RevD.01\HF=-
 500.6820795\RMSD=8.077e-09\Dipole=0.0003597,-0.0001544,0.\Quadrupole=1
 3.6563281,6.6079635,-20.2642916,0.6207904,0.,0.\PG=C01 [X(C13H9)]\\@


 OLD AGE AND TREACHERY WILL ALWAYS PREVAIL OVER YOUTH AND SKILL.
 Job cpu time:       0 days  0 hours 18 minutes 35.7 seconds.
 File lengths (MBytes):  RWF=     57 Int=      0 D2E=      0 Chk=      6 Scr=      1
 Normal termination of Gaussian 09 at Sun May  4 19:41:35 2014.
